# vtk DataFile Version 2.0
vw
ASCII
DATASET STRUCTURED_POINTS
DIMENSIONS  102  102    1
ORIGIN      0.0000000      0.0000000      0.0000000
SPACING      0.0100000      0.0100000      0.0100000
POINT_DATA  10404
VECTORS velocity float
      0.0000000	      0.0000000	      0.0000000
      0.0000000	      0.0000000	      0.0000000
      0.0000000	      0.0000000	      0.0000000
      0.0000000	      0.0000000	      0.0000000
      0.0000000	      0.0000000	      0.0000000
      0.0000000	      0.0000000	      0.0000000
      0.0000000	      0.0000000	      0.0000000
      0.0000000	      0.0000000	      0.0000000
      0.0000000	      0.0000000	      0.0000000
      0.0000000	      0.0000000	      0.0000000
      0.0000000	      0.0000000	      0.0000000
      0.0000000	      0.0000000	      0.0000000
      0.0000000	      0.0000000	      0.0000000
      0.0000000	      0.0000000	      0.0000000
      0.0000000	      0.0000000	      0.0000000
      0.0000000	      0.0000000	      0.0000000
      0.0000000	      0.0000000	      0.0000000
      0.0000000	      0.0000000	      0.0000000
      0.0000000	      0.0000000	      0.0000000
      0.0000000	      0.0000000	      0.0000000
      0.0000000	      0.0000000	      0.0000000
      0.0000000	      0.0000000	      0.0000000
      0.0000000	      0.0000000	      0.0000000
      0.0000000	      0.0000000	      0.0000000
      0.0000000	      0.0000000	      0.0000000
      0.0000000	      0.0000000	      0.0000000
      0.0000000	      0.0000000	      0.0000000
      0.0000000	      0.0000000	      0.0000000
      0.0000000	      0.0000000	      0.0000000
      0.0000000	      0.0000000	      0.0000000
      0.0000000	      0.0000000	      0.0000000
      0.0000000	      0.0000000	      0.0000000
      0.0000000	      0.0000000	      0.0000000
      0.0000000	      0.0000000	      0.0000000
      0.0000000	      0.0000000	      0.0000000
      0.0000000	      0.0000000	      0.0000000
      0.0000000	      0.0000000	      0.0000000
      0.0000000	      0.0000000	      0.0000000
      0.0000000	      0.0000000	      0.0000000
      0.0000000	      0.0000000	      0.0000000
      0.0000000	      0.0000000	      0.0000000
      0.0000000	      0.0000000	      0.0000000
      0.0000000	      0.0000000	      0.0000000
      0.0000000	      0.0000000	      0.0000000
      0.0000000	      0.0000000	      0.0000000
      0.0000000	      0.0000000	      0.0000000
      0.0000000	      0.0000000	      0.0000000
      0.0000000	      0.0000000	      0.0000000
      0.0000000	      0.0000000	      0.0000000
      0.0000000	      0.0000000	      0.0000000
      0.0000000	      0.0000000	      0.0000000
      0.0000000	      0.0000000	      0.0000000
      0.0000000	      0.0000000	      0.0000000
      0.0000000	      0.0000000	      0.0000000
      0.0000000	      0.0000000	      0.0000000
      0.0000000	      0.0000000	      0.0000000
      0.0000000	      0.0000000	      0.0000000
      0.0000000	      0.0000000	      0.0000000
      0.0000000	      0.0000000	      0.0000000
      0.0000000	      0.0000000	      0.0000000
      0.0000000	      0.0000000	      0.0000000
      0.0000000	      0.0000000	      0.0000000
      0.0000000	      0.0000000	      0.0000000
      0.0000000	      0.0000000	      0.0000000
      0.0000000	      0.0000000	      0.0000000
      0.0000000	      0.0000000	      0.0000000
      0.0000000	      0.0000000	      0.0000000
      0.0000000	      0.0000000	      0.0000000
      0.0000000	      0.0000000	      0.0000000
      0.0000000	      0.0000000	      0.0000000
      0.0000000	      0.0000000	      0.0000000
      0.0000000	      0.0000000	      0.0000000
      0.0000000	      0.0000000	      0.0000000
      0.0000000	      0.0000000	      0.0000000
      0.0000000	      0.0000000	      0.0000000
      0.0000000	      0.0000000	      0.0000000
      0.0000000	      0.0000000	      0.0000000
      0.0000000	      0.0000000	      0.0000000
      0.0000000	      0.0000000	      0.0000000
      0.0000000	      0.0000000	      0.0000000
      0.0000000	      0.0000000	      0.0000000
      0.0000000	      0.0000000	      0.0000000
      0.0000000	      0.0000000	      0.0000000
      0.0000000	      0.0000000	      0.0000000
      0.0000000	      0.0000000	      0.0000000
      0.0000000	      0.0000000	      0.0000000
      0.0000000	      0.0000000	      0.0000000
      0.0000000	      0.0000000	      0.0000000
      0.0000000	      0.0000000	      0.0000000
      0.0000000	      0.0000000	      0.0000000
      0.0000000	      0.0000000	      0.0000000
      0.0000000	      0.0000000	      0.0000000
      0.0000000	      0.0000000	      0.0000000
      0.0000000	      0.0000000	      0.0000000
      0.0000000	      0.0000000	      0.0000000
      0.0000000	      0.0000000	      0.0000000
      0.0000000	      0.0000000	      0.0000000
      0.0000000	      0.0000000	      0.0000000
      0.0000000	      0.0000000	      0.0000000
      0.0000000	      0.0000000	      0.0000000
      0.0000000	      0.0000000	      0.0000000
      0.0000000	      0.0000000	      0.0000000
      0.0000000	      0.0000000	      0.0000000
     -0.0004682	     -0.0006894	      0.0000000
     -0.0006362	     -0.0007457	      0.0000000
     -0.0007719	     -0.0006641	      0.0000000
     -0.0011913	     -0.0005025	      0.0000000
     -0.0017738	     -0.0003550	      0.0000000
     -0.0025944	     -0.0002183	      0.0000000
     -0.0035728	     -0.0001099	      0.0000000
     -0.0047144	     -0.0000214	      0.0000000
     -0.0059686	      0.0000453	      0.0000000
     -0.0073237	      0.0000963	      0.0000000
     -0.0087485	      0.0001328	      0.0000000
     -0.0102300	      0.0001589	      0.0000000
     -0.0117494	      0.0001761	      0.0000000
     -0.0132966	      0.0001869	      0.0000000
     -0.0148608	      0.0001925	      0.0000000
     -0.0164351	      0.0001945	      0.0000000
     -0.0180135	      0.0001937	      0.0000000
     -0.0195918	      0.0001909	      0.0000000
     -0.0211668	      0.0001866	      0.0000000
     -0.0227358	      0.0001813	      0.0000000
     -0.0242971	      0.0001751	      0.0000000
     -0.0258489	      0.0001682	      0.0000000
     -0.0273900	      0.0001607	      0.0000000
     -0.0289187	      0.0001524	      0.0000000
     -0.0304337	      0.0001432	      0.0000000
     -0.0319334	      0.0001331	      0.0000000
     -0.0334159	      0.0001219	      0.0000000
     -0.0348791	      0.0001094	      0.0000000
     -0.0363206	      0.0000953	      0.0000000
     -0.0377377	      0.0000794	      0.0000000
     -0.0391272	      0.0000616	      0.0000000
     -0.0404859	      0.0000415	      0.0000000
     -0.0418097	      0.0000190	      0.0000000
     -0.0430948	     -0.0000061	      0.0000000
     -0.0443365	     -0.0000342	      0.0000000
     -0.0455301	     -0.0000653	      0.0000000
     -0.0466705	     -0.0000996	      0.0000000
     -0.0477523	     -0.0001374	      0.0000000
     -0.0487700	     -0.0001788	      0.0000000
     -0.0497177	     -0.0002238	      0.0000000
     -0.0505896	     -0.0002726	      0.0000000
     -0.0513794	     -0.0003252	      0.0000000
     -0.0520812	     -0.0003815	      0.0000000
     -0.0526889	     -0.0004416	      0.0000000
     -0.0531967	     -0.0005054	      0.0000000
     -0.0535987	     -0.0005727	      0.0000000
     -0.0538896	     -0.0006433	      0.0000000
     -0.0540639	     -0.0007173	      0.0000000
     -0.0541167	     -0.0007944	      0.0000000
     -0.0540430	     -0.0008744	      0.0000000
     -0.0538386	     -0.0009569	      0.0000000
     -0.0534999	     -0.0010416	      0.0000000
     -0.0530240	     -0.0011278	      0.0000000
     -0.0524087	     -0.0012150	      0.0000000
     -0.0516529	     -0.0013026	      0.0000000
     -0.0507566	     -0.0013899	      0.0000000
     -0.0497205	     -0.0014762	      0.0000000
     -0.0485468	     -0.0015608	      0.0000000
     -0.0472386	     -0.0016429	      0.0000000
     -0.0458002	     -0.0017218	      0.0000000
     -0.0442371	     -0.0017967	      0.0000000
     -0.0425560	     -0.0018669	      0.0000000
     -0.0407645	     -0.0019316	      0.0000000
     -0.0388716	     -0.0019902	      0.0000000
     -0.0368871	     -0.0020421	      0.0000000
     -0.0348217	     -0.0020867	      0.0000000
     -0.0326872	     -0.0021235	      0.0000000
     -0.0304958	     -0.0021521	      0.0000000
     -0.0282606	     -0.0021720	      0.0000000
     -0.0259950	     -0.0021831	      0.0000000
     -0.0237130	     -0.0021853	      0.0000000
     -0.0214285	     -0.0021783	      0.0000000
     -0.0191558	     -0.0021622	      0.0000000
     -0.0169090	     -0.0021372	      0.0000000
     -0.0147022	     -0.0021034	      0.0000000
     -0.0125492	     -0.0020610	      0.0000000
     -0.0104635	     -0.0020103	      0.0000000
     -0.0084579	     -0.0019516	      0.0000000
     -0.0065453	     -0.0018854	      0.0000000
     -0.0047373	     -0.0018121	      0.0000000
     -0.0030458	     -0.0017320	      0.0000000
     -0.0014811	     -0.0016457	      0.0000000
     -0.0000538	     -0.0015535	      0.0000000
      0.0012270	     -0.0014559	      0.0000000
      0.0023520	     -0.0013535	      0.0000000
      0.0033143	     -0.0012469	      0.0000000
      0.0041055	     -0.0011363	      0.0000000
      0.0047214	     -0.0010228	      0.0000000
      0.0051552	     -0.0009069	      0.0000000
      0.0054072	     -0.0007902	      0.0000000
      0.0054727	     -0.0006739	      0.0000000
      0.0053600	     -0.0005609	      0.0000000
      0.0050691	     -0.0004537	      0.0000000
      0.0046221	     -0.0003587	      0.0000000
      0.0040289	     -0.0002803	      0.0000000
      0.0033340	     -0.0002316	      0.0000000
      0.0025663	     -0.0002159	      0.0000000
      0.0017971	     -0.0002539	      0.0000000
      0.0010836	     -0.0003084	      0.0000000
      0.0004695	     -0.0003518	      0.0000000
      0.0000000	      0.0000000	      0.0000000
      0.0000000	      0.0000000	      0.0000000
     -0.0006783	     -0.0008917	      0.0000000
     -0.0011631	     -0.0008612	      0.0000000
     -0.0017792	     -0.0005864	      0.0000000
     -0.0027752	     -0.0001547	      0.0000000
     -0.0040648	      0.0002582	      0.0000000
     -0.0057149	      0.0006497	      0.0000000
     -0.0076437	      0.0009763	      0.0000000
     -0.0098439	      0.0012513	      0.0000000
     -0.0122514	      0.0014676	      0.0000000
     -0.0148390	      0.0016383	      0.0000000
     -0.0175610	      0.0017660	      0.0000000
     -0.0203908	      0.0018607	      0.0000000
     -0.0232979	      0.0019268	      0.0000000
     -0.0262620	      0.0019714	      0.0000000
     -0.0292637	      0.0019982	      0.0000000
     -0.0322891	      0.0020120	      0.0000000
     -0.0353266	      0.0020153	      0.0000000
     -0.0383672	      0.0020109	      0.0000000
     -0.0414039	      0.0020006	      0.0000000
     -0.0444310	      0.0019857	      0.0000000
     -0.0474442	      0.0019671	      0.0000000
     -0.0504394	      0.0019453	      0.0000000
     -0.0534133	      0.0019204	      0.0000000
     -0.0563625	      0.0018926	      0.0000000
     -0.0592838	      0.0018615	      0.0000000
     -0.0621734	      0.0018268	      0.0000000
     -0.0650275	      0.0017880	      0.0000000
     -0.0678418	      0.0017445	      0.0000000
     -0.0706114	      0.0016956	      0.0000000
     -0.0733310	      0.0016408	      0.0000000
     -0.0759945	      0.0015793	      0.0000000
     -0.0785953	      0.0015104	      0.0000000
     -0.0811264	      0.0014335	      0.0000000
     -0.0835799	      0.0013477	      0.0000000
     -0.0859475	      0.0012525	      0.0000000
     -0.0882203	      0.0011472	      0.0000000
     -0.0903887	      0.0010313	      0.0000000
     -0.0924431	      0.0009043	      0.0000000
     -0.0943730	      0.0007657	      0.0000000
     -0.0961678	      0.0006151	      0.0000000
     -0.0978168	      0.0004524	      0.0000000
     -0.0993089	      0.0002774	      0.0000000
     -0.1006331	      0.0000901	      0.0000000
     -0.1017784	     -0.0001092	      0.0000000
     -0.1027341	     -0.0003202	      0.0000000
     -0.1034900	     -0.0005425	      0.0000000
     -0.1040361	     -0.0007756	      0.0000000
     -0.1043631	     -0.0010193	      0.0000000
     -0.1044620	     -0.0012729	      0.0000000
     -0.1043245	     -0.0015355	      0.0000000
     -0.1039434	     -0.0018060	      0.0000000
     -0.1033123	     -0.0020829	      0.0000000
     -0.1024266	     -0.0023648	      0.0000000
     -0.1012828	     -0.0026496	      0.0000000
     -0.0998794	     -0.0029356	      0.0000000
     -0.0982163	     -0.0032205	      0.0000000
     -0.0962956	     -0.0035023	      0.0000000
     -0.0941211	     -0.0037785	      0.0000000
     -0.0916989	     -0.0040469	      0.0000000
     -0.0890367	     -0.0043051	      0.0000000
     -0.0861447	     -0.0045507	      0.0000000
     -0.0830347	     -0.0047815	      0.0000000
     -0.0797209	     -0.0049952	      0.0000000
     -0.0762189	     -0.0051896	      0.0000000
     -0.0725465	     -0.0053629	      0.0000000
     -0.0687228	     -0.0055133	      0.0000000
     -0.0647686	     -0.0056390	      0.0000000
     -0.0607060	     -0.0057389	      0.0000000
     -0.0565581	     -0.0058116	      0.0000000
     -0.0523489	     -0.0058565	      0.0000000
     -0.0481032	     -0.0058729	      0.0000000
     -0.0438461	     -0.0058604	      0.0000000
     -0.0396031	     -0.0058191	      0.0000000
     -0.0353997	     -0.0057490	      0.0000000
     -0.0312611	     -0.0056506	      0.0000000
     -0.0272123	     -0.0055245	      0.0000000
     -0.0232779	     -0.0053716	      0.0000000
     -0.0194815	     -0.0051927	      0.0000000
     -0.0158464	     -0.0049889	      0.0000000
     -0.0123945	     -0.0047615	      0.0000000
     -0.0091474	     -0.0045116	      0.0000000
     -0.0061250	     -0.0042406	      0.0000000
     -0.0033470	     -0.0039498	      0.0000000
     -0.0008305	     -0.0036408	      0.0000000
      0.0014068	     -0.0033151	      0.0000000
      0.0033511	     -0.0029746	      0.0000000
      0.0049872	     -0.0026213	      0.0000000
      0.0063063	     -0.0022578	      0.0000000
      0.0072967	     -0.0018870	      0.0000000
      0.0079573	     -0.0015135	      0.0000000
      0.0082822	     -0.0011423	      0.0000000
      0.0082835	     -0.0007820	      0.0000000
      0.0079651	     -0.0004415	      0.0000000
      0.0073618	     -0.0001372	      0.0000000
      0.0064937	      0.0001168	      0.0000000
      0.0054312	      0.0002908	      0.0000000
      0.0042168	      0.0003707	      0.0000000
      0.0029692	      0.0003142	      0.0000000
      0.0017501	      0.0001629	      0.0000000
      0.0007340	     -0.0000800	      0.0000000
      0.0000000	      0.0000000	      0.0000000
      0.0000000	      0.0000000	      0.0000000
     -0.0008643	     -0.0007030	      0.0000000
     -0.0016979	     -0.0004425	      0.0000000
     -0.0028448	      0.0001639	      0.0000000
     -0.0044703	      0.0009871	      0.0000000
     -0.0065069	      0.0017948	      0.0000000
     -0.0089945	      0.0025642	      0.0000000
     -0.0118564	      0.0032244	      0.0000000
     -0.0150693	      0.0037882	      0.0000000
     -0.0185645	      0.0042422	      0.0000000
     -0.0223015	      0.0046060	      0.0000000
     -0.0262266	      0.0048842	      0.0000000
     -0.0303020	      0.0050944	      0.0000000
     -0.0344896	      0.0052453	      0.0000000
     -0.0387601	      0.0053500	      0.0000000
     -0.0430880	      0.0054163	      0.0000000
     -0.0474529	      0.0054535	      0.0000000
     -0.0518384	      0.0054671	      0.0000000
     -0.0562309	      0.0054630	      0.0000000
     -0.0606200	      0.0054445	      0.0000000
     -0.0649967	      0.0054149	      0.0000000
     -0.0693538	      0.0053760	      0.0000000
     -0.0736850	      0.0053290	      0.0000000
     -0.0779847	      0.0052745	      0.0000000
     -0.0822473	      0.0052125	      0.0000000
     -0.0864675	      0.0051427	      0.0000000
     -0.0906394	      0.0050644	      0.0000000
     -0.0947572	      0.0049766	      0.0000000
     -0.0988141	      0.0048783	      0.0000000
     -0.1028029	      0.0047681	      0.0000000
     -0.1067157	      0.0046448	      0.0000000
     -0.1105437	      0.0045069	      0.0000000
     -0.1142775	      0.0043529	      0.0000000
     -0.1179068	      0.0041815	      0.0000000
     -0.1214205	      0.0039912	      0.0000000
     -0.1248069	      0.0037808	      0.0000000
     -0.1280533	      0.0035490	      0.0000000
     -0.1311468	      0.0032945	      0.0000000
     -0.1340734	      0.0030165	      0.0000000
     -0.1368190	      0.0027140	      0.0000000
     -0.1393689	      0.0023863	      0.0000000
     -0.1417081	      0.0020330	      0.0000000
     -0.1438216	      0.0016540	      0.0000000
     -0.1456943	      0.0012492	      0.0000000
     -0.1473112	      0.0008190	      0.0000000
     -0.1486577	      0.0003642	      0.0000000
     -0.1497197	     -0.0001142	      0.0000000
     -0.1504836	     -0.0006152	      0.0000000
     -0.1509371	     -0.0011377	      0.0000000
     -0.1510683	     -0.0016806	      0.0000000
     -0.1508664	     -0.0022419	      0.0000000
     -0.1503220	     -0.0028191	      0.0000000
     -0.1494272	     -0.0034093	      0.0000000
     -0.1481759	     -0.0040091	      0.0000000
     -0.1465643	     -0.0046148	      0.0000000
     -0.1445906	     -0.0052222	      0.0000000
     -0.1422555	     -0.0058272	      0.0000000
     -0.1395621	     -0.0064251	      0.0000000
     -0.1365163	     -0.0070114	      0.0000000
     -0.1331263	     -0.0075811	      0.0000000
     -0.1294035	     -0.0081295	      0.0000000
     -0.1253616	     -0.0086517	      0.0000000
     -0.1210171	     -0.0091431	      0.0000000
     -0.1163892	     -0.0095991	      0.0000000
     -0.1114994	     -0.0100153	      0.0000000
     -0.1063716	     -0.0103877	      0.0000000
     -0.1010320	     -0.0107127	      0.0000000
     -0.0955086	     -0.0109869	      0.0000000
     -0.0898313	     -0.0112076	      0.0000000
     -0.0840312	     -0.0113723	      0.0000000
     -0.0781407	     -0.0114793	      0.0000000
     -0.0721935	     -0.0115273	      0.0000000
     -0.0662234	     -0.0115155	      0.0000000
     -0.0602648	     -0.0114435	      0.0000000
     -0.0543524	     -0.0113118	      0.0000000
     -0.0485205	     -0.0111209	      0.0000000
     -0.0428030	     -0.0108720	      0.0000000
     -0.0372335	     -0.0105665	      0.0000000
     -0.0318445	     -0.0102062	      0.0000000
     -0.0266678	     -0.0097931	      0.0000000
     -0.0217340	     -0.0093294	      0.0000000
     -0.0170729	     -0.0088176	      0.0000000
     -0.0127122	     -0.0082602	      0.0000000
     -0.0086792	     -0.0076601	      0.0000000
     -0.0049986	     -0.0070201	      0.0000000
     -0.0016948	     -0.0063436	      0.0000000
      0.0012120	     -0.0056346	      0.0000000
      0.0037010	     -0.0048973	      0.0000000
      0.0057584	     -0.0041375	      0.0000000
      0.0073690	     -0.0033619	      0.0000000
      0.0085293	     -0.0025798	      0.0000000
      0.0092325	     -0.0018028	      0.0000000
      0.0094924	     -0.0010478	      0.0000000
      0.0093161	     -0.0003341	      0.0000000
      0.0087459	      0.0003082	      0.0000000
      0.0078097	      0.0008490	      0.0000000
      0.0065945	      0.0012400	      0.0000000
      0.0051539	      0.0014462	      0.0000000
      0.0036402	      0.0014061	      0.0000000
      0.0021276	      0.0011291	      0.0000000
      0.0008805	      0.0005912	      0.0000000
      0.0000000	      0.0000000	      0.0000000
      0.0000000	      0.0000000	      0.0000000
     -0.0010306	     -0.0003408	      0.0000000
     -0.0022260	      0.0003516	      0.0000000
     -0.0039344	      0.0014289	      0.0000000
     -0.0062184	      0.0027428	      0.0000000
     -0.0090219	      0.0040251	      0.0000000
     -0.0123438	      0.0052397	      0.0000000
     -0.0161150	      0.0062955	      0.0000000
     -0.0202942	      0.0072038	      0.0000000
     -0.0248136	      0.0079460	      0.0000000
     -0.0296212	      0.0085471	      0.0000000
     -0.0346601	      0.0090142	      0.0000000
     -0.0398838	      0.0093717	      0.0000000
     -0.0452493	      0.0096332	      0.0000000
     -0.0507203	      0.0098182	      0.0000000
     -0.0562666	      0.0099392	      0.0000000
     -0.0618623	      0.0100102	      0.0000000
     -0.0674869	      0.0100406	      0.0000000
     -0.0731228	      0.0100393	      0.0000000
     -0.0787561	      0.0100123	      0.0000000
     -0.0843747	      0.0099647	      0.0000000
     -0.0899688	      0.0098996	      0.0000000
     -0.0955292	      0.0098193	      0.0000000
     -0.1010482	      0.0097247	      0.0000000
     -0.1065177	      0.0096161	      0.0000000
     -0.1119304	      0.0094929	      0.0000000
     -0.1172781	      0.0093543	      0.0000000
     -0.1225528	      0.0091988	      0.0000000
     -0.1277453	      0.0090247	      0.0000000
     -0.1328463	      0.0088299	      0.0000000
     -0.1378451	      0.0086123	      0.0000000
     -0.1427305	      0.0083697	      0.0000000
     -0.1474904	      0.0080998	      0.0000000
     -0.1521116	      0.0078004	      0.0000000
     -0.1565801	      0.0074692	      0.0000000
     -0.1608810	      0.0071042	      0.0000000
     -0.1649986	      0.0067032	      0.0000000
     -0.1689166	      0.0062645	      0.0000000
     -0.1726178	      0.0057866	      0.0000000
     -0.1760846	      0.0052680	      0.0000000
     -0.1792989	      0.0047078	      0.0000000
     -0.1822423	      0.0041052	      0.0000000
     -0.1848965	      0.0034601	      0.0000000
     -0.1872428	      0.0027726	      0.0000000
     -0.1892633	      0.0020434	      0.0000000
     -0.1909400	      0.0012735	      0.0000000
     -0.1922560	      0.0004648	      0.0000000
     -0.1931948	     -0.0003808	      0.0000000
     -0.1937414	     -0.0012612	      0.0000000
     -0.1938821	     -0.0021742	      0.0000000
     -0.1936042	     -0.0031165	      0.0000000
     -0.1928969	     -0.0040840	      0.0000000
     -0.1917515	     -0.0050717	      0.0000000
     -0.1901613	     -0.0060742	      0.0000000
     -0.1881224	     -0.0070853	      0.0000000
     -0.1856335	     -0.0080984	      0.0000000
     -0.1826960	     -0.0091065	      0.0000000
     -0.1793146	     -0.0101023	      0.0000000
     -0.1754969	     -0.0110781	      0.0000000
     -0.1712538	     -0.0120263	      0.0000000
     -0.1665993	     -0.0129390	      0.0000000
     -0.1615507	     -0.0138085	      0.0000000
     -0.1561285	     -0.0146272	      0.0000000
     -0.1503561	     -0.0153878	      0.0000000
     -0.1442601	     -0.0160832	      0.0000000
     -0.1378695	     -0.0167071	      0.0000000
     -0.1312162	     -0.0172534	      0.0000000
     -0.1243343	     -0.0177168	      0.0000000
     -0.1172597	     -0.0180929	      0.0000000
     -0.1100303	     -0.0183778	      0.0000000
     -0.1026855	     -0.0185684	      0.0000000
     -0.0952655	     -0.0186627	      0.0000000
     -0.0878115	     -0.0186593	      0.0000000
     -0.0803652	     -0.0185577	      0.0000000
     -0.0729682	     -0.0183581	      0.0000000
     -0.0656623	     -0.0180614	      0.0000000
     -0.0584886	     -0.0176693	      0.0000000
     -0.0514878	     -0.0171839	      0.0000000
     -0.0446995	     -0.0166079	      0.0000000
     -0.0381627	     -0.0159444	      0.0000000
     -0.0319145	     -0.0151968	      0.0000000
     -0.0259915	     -0.0143690	      0.0000000
     -0.0204280	     -0.0134648	      0.0000000
     -0.0152574	     -0.0124888	      0.0000000
     -0.0105103	     -0.0114457	      0.0000000
     -0.0062168	     -0.0103409	      0.0000000
     -0.0024022	     -0.0091808	      0.0000000
      0.0009079	     -0.0079728	      0.0000000
      0.0036960	     -0.0067265	      0.0000000
      0.0059434	     -0.0054533	      0.0000000
      0.0076451	     -0.0041687	      0.0000000
      0.0087930	     -0.0028919	      0.0000000
      0.0094025	     -0.0016496	      0.0000000
      0.0094820	     -0.0004737	      0.0000000
      0.0090794	      0.0005911	      0.0000000
      0.0082266	      0.0014958	      0.0000000
      0.0070227	      0.0021718	      0.0000000
      0.0055267	      0.0025575	      0.0000000
      0.0039170	      0.0025659	      0.0000000
      0.0022775	      0.0021594	      0.0000000
      0.0009315	      0.0012753	      0.0000000
      0.0000000	      0.0000000	      0.0000000
      0.0000000	      0.0000000	      0.0000000
     -0.0011908	      0.0003466	      0.0000000
     -0.0027356	      0.0016726	      0.0000000
     -0.0049884	      0.0033711	      0.0000000
     -0.0079185	      0.0052852	      0.0000000
     -0.0114736	      0.0071331	      0.0000000
     -0.0156088	      0.0088678	      0.0000000
     -0.0202588	      0.0103858	      0.0000000
     -0.0253620	      0.0116965	      0.0000000
     -0.0308519	      0.0127785	      0.0000000
     -0.0366654	      0.0136611	      0.0000000
     -0.0427442	      0.0143549	      0.0000000
     -0.0490343	      0.0148911	      0.0000000
     -0.0554896	      0.0152886	      0.0000000
     -0.0620684	      0.0155737	      0.0000000
     -0.0687370	      0.0157640	      0.0000000
     -0.0754650	      0.0158791	      0.0000000
     -0.0822287	      0.0159322	      0.0000000
     -0.0890069	      0.0159361	      0.0000000
     -0.0957828	      0.0158996	      0.0000000
     -0.1025414	      0.0158300	      0.0000000
     -0.1092703	      0.0157320	      0.0000000
     -0.1159580	      0.0156090	      0.0000000
     -0.1225942	      0.0154626	      0.0000000
     -0.1291689	      0.0152933	      0.0000000
     -0.1356722	      0.0151006	      0.0000000
     -0.1420942	      0.0148831	      0.0000000
     -0.1484242	      0.0146389	      0.0000000
     -0.1546512	      0.0143655	      0.0000000
     -0.1607632	      0.0140602	      0.0000000
     -0.1667475	      0.0137199	      0.0000000
     -0.1725903	      0.0133414	      0.0000000
     -0.1782770	      0.0129216	      0.0000000
     -0.1837917	      0.0124571	      0.0000000
     -0.1891179	      0.0119449	      0.0000000
     -0.1942379	      0.0113818	      0.0000000
     -0.1991331	      0.0107652	      0.0000000
     -0.2037844	      0.0100924	      0.0000000
     -0.2081716	      0.0093612	      0.0000000
     -0.2122741	      0.0085697	      0.0000000
     -0.2160711	      0.0077167	      0.0000000
     -0.2195412	      0.0068013	      0.0000000
     -0.2226632	      0.0058231	      0.0000000
     -0.2254157	      0.0047825	      0.0000000
     -0.2277780	      0.0036807	      0.0000000
     -0.2297297	      0.0025193	      0.0000000
     -0.2312514	      0.0013009	      0.0000000
     -0.2323247	      0.0000286	      0.0000000
     -0.2329321	     -0.0012940	      0.0000000
     -0.2330586	     -0.0026633	      0.0000000
     -0.2326903	     -0.0040744	      0.0000000
     -0.2318156	     -0.0055209	      0.0000000
     -0.2304253	     -0.0069956	      0.0000000
     -0.2285127	     -0.0084904	      0.0000000
     -0.2260742	     -0.0099962	      0.0000000
     -0.2231091	     -0.0115035	      0.0000000
     -0.2196200	     -0.0130020	      0.0000000
     -0.2156130	     -0.0144811	      0.0000000
     -0.2110978	     -0.0159298	      0.0000000
     -0.2060875	     -0.0173369	      0.0000000
     -0.2005990	     -0.0186911	      0.0000000
     -0.1946528	     -0.0199812	      0.0000000
     -0.1882728	     -0.0211963	      0.0000000
     -0.1814864	     -0.0223258	      0.0000000
     -0.1743244	     -0.0233597	      0.0000000
     -0.1668205	     -0.0242886	      0.0000000
     -0.1590114	     -0.0251041	      0.0000000
     -0.1509363	     -0.0257983	      0.0000000
     -0.1426365	     -0.0263649	      0.0000000
     -0.1341555	     -0.0267983	      0.0000000
     -0.1255382	     -0.0270941	      0.0000000
     -0.1168308	     -0.0272491	      0.0000000
     -0.1080802	     -0.0272614	      0.0000000
     -0.0993341	     -0.0271301	      0.0000000
     -0.0906400	     -0.0268555	      0.0000000
     -0.0820456	     -0.0264387	      0.0000000
     -0.0735979	     -0.0258819	      0.0000000
     -0.0653433	     -0.0251881	      0.0000000
     -0.0573271	     -0.0243610	      0.0000000
     -0.0495938	     -0.0234048	      0.0000000
     -0.0421861	     -0.0223245	      0.0000000
     -0.0351457	     -0.0211252	      0.0000000
     -0.0285121	     -0.0198127	      0.0000000
     -0.0223236	     -0.0183932	      0.0000000
     -0.0166154	     -0.0168738	      0.0000000
     -0.0114220	     -0.0152622	      0.0000000
     -0.0067727	     -0.0135677	      0.0000000
     -0.0026967	     -0.0118015	      0.0000000
      0.0007854	     -0.0099775	      0.0000000
      0.0036520	     -0.0081131	      0.0000000
      0.0058968	     -0.0062310	      0.0000000
      0.0075107	     -0.0043594	      0.0000000
      0.0085097	     -0.0025363	      0.0000000
      0.0089029	     -0.0008077	      0.0000000
      0.0087422	      0.0007650	      0.0000000
      0.0080622	      0.0021114	      0.0000000
      0.0069702	      0.0031410	      0.0000000
      0.0055307	      0.0037602	      0.0000000
      0.0039383	      0.0038542	      0.0000000
      0.0022877	      0.0033268	      0.0000000
      0.0009298	      0.0020684	      0.0000000
      0.0000000	      0.0000000	      0.0000000
      0.0000000	      0.0000000	      0.0000000
     -0.0013437	      0.0012346	      0.0000000
     -0.0032249	      0.0033818	      0.0000000
     -0.0060019	      0.0058433	      0.0000000
     -0.0095576	      0.0084599	      0.0000000
     -0.0138404	      0.0109483	      0.0000000
     -0.0187593	      0.0132586	      0.0000000
     -0.0242509	      0.0152831	      0.0000000