# vtk DataFile Version 2.0
vw
ASCII
DATASET STRUCTURED_POINTS
DIMENSIONS  102  102    1
ORIGIN      0.0000000      0.0000000      0.0000000
SPACING      0.0100000      0.0100000      0.0100000
POINT_DATA  10404
VECTORS velocity float
      0.0000000	      0.0000000	      0.0000000
      0.0000000	      0.0000000	      0.0000000
      0.0000000	      0.0000000	      0.0000000
      0.0000000	      0.0000000	      0.0000000
      0.0000000	      0.0000000	      0.0000000
      0.0000000	      0.0000000	      0.0000000
      0.0000000	      0.0000000	      0.0000000
      0.0000000	      0.0000000	      0.0000000
      0.0000000	      0.0000000	      0.0000000
      0.0000000	      0.0000000	      0.0000000
      0.0000000	      0.0000000	      0.0000000
      0.0000000	      0.0000000	      0.0000000
      0.0000000	      0.0000000	      0.0000000
      0.0000000	      0.0000000	      0.0000000
      0.0000000	      0.0000000	      0.0000000
      0.0000000	      0.0000000	      0.0000000
      0.0000000	      0.0000000	      0.0000000
      0.0000000	      0.0000000	      0.0000000
      0.0000000	      0.0000000	      0.0000000
      0.0000000	      0.0000000	      0.0000000
      0.0000000	      0.0000000	      0.0000000
      0.0000000	      0.0000000	      0.0000000
      0.0000000	      0.0000000	      0.0000000
      0.0000000	      0.0000000	      0.0000000
      0.0000000	      0.0000000	      0.0000000
      0.0000000	      0.0000000	      0.0000000
      0.0000000	      0.0000000	      0.0000000
      0.0000000	      0.0000000	      0.0000000
      0.0000000	      0.0000000	      0.0000000
      0.0000000	      0.0000000	      0.0000000
      0.0000000	      0.0000000	      0.0000000
      0.0000000	      0.0000000	      0.0000000
      0.0000000	      0.0000000	      0.0000000
      0.0000000	      0.0000000	      0.0000000
      0.0000000	      0.0000000	      0.0000000
      0.0000000	      0.0000000	      0.0000000
      0.0000000	      0.0000000	      0.0000000
      0.0000000	      0.0000000	      0.0000000
      0.0000000	      0.0000000	      0.0000000
      0.0000000	      0.0000000	      0.0000000
      0.0000000	      0.0000000	      0.0000000
      0.0000000	      0.0000000	      0.0000000
      0.0000000	      0.0000000	      0.0000000
      0.0000000	      0.0000000	      0.0000000
      0.0000000	      0.0000000	      0.0000000
      0.0000000	      0.0000000	      0.0000000
      0.0000000	      0.0000000	      0.0000000
      0.0000000	      0.0000000	      0.0000000
      0.0000000	      0.0000000	      0.0000000
      0.0000000	      0.0000000	      0.0000000
      0.0000000	      0.0000000	      0.0000000
      0.0000000	      0.0000000	      0.0000000
      0.0000000	      0.0000000	      0.0000000
      0.0000000	      0.0000000	      0.0000000
      0.0000000	      0.0000000	      0.0000000
      0.0000000	      0.0000000	      0.0000000
      0.0000000	      0.0000000	      0.0000000
      0.0000000	      0.0000000	      0.0000000
      0.0000000	      0.0000000	      0.0000000
      0.0000000	      0.0000000	      0.0000000
      0.0000000	      0.0000000	      0.0000000
      0.0000000	      0.0000000	      0.0000000
      0.0000000	      0.0000000	      0.0000000
      0.0000000	      0.0000000	      0.0000000
      0.0000000	      0.0000000	      0.0000000
      0.0000000	      0.0000000	      0.0000000
      0.0000000	      0.0000000	      0.0000000
      0.0000000	      0.0000000	      0.0000000
      0.0000000	      0.0000000	      0.0000000
      0.0000000	      0.0000000	      0.0000000
      0.0000000	      0.0000000	      0.0000000
      0.0000000	      0.0000000	      0.0000000
      0.0000000	      0.0000000	      0.0000000
      0.0000000	      0.0000000	      0.0000000
      0.0000000	      0.0000000	      0.0000000
      0.0000000	      0.0000000	      0.0000000
      0.0000000	      0.0000000	      0.0000000
      0.0000000	      0.0000000	      0.0000000
      0.0000000	      0.0000000	      0.0000000
      0.0000000	      0.0000000	      0.0000000
      0.0000000	      0.0000000	      0.0000000
      0.0000000	      0.0000000	      0.0000000
      0.0000000	      0.0000000	      0.0000000
      0.0000000	      0.0000000	      0.0000000
      0.0000000	      0.0000000	      0.0000000
      0.0000000	      0.0000000	      0.0000000
      0.0000000	      0.0000000	      0.0000000
      0.0000000	      0.0000000	      0.0000000
      0.0000000	      0.0000000	      0.0000000
      0.0000000	      0.0000000	      0.0000000
      0.0000000	      0.0000000	      0.0000000
      0.0000000	      0.0000000	      0.0000000
      0.0000000	      0.0000000	      0.0000000
      0.0000000	      0.0000000	      0.0000000
      0.0000000	      0.0000000	      0.0000000
      0.0000000	      0.0000000	      0.0000000
      0.0000000	      0.0000000	      0.0000000
      0.0000000	      0.0000000	      0.0000000
      0.0000000	      0.0000000	      0.0000000
      0.0000000	      0.0000000	      0.0000000
      0.0000000	      0.0000000	      0.0000000
      0.0000000	      0.0000000	      0.0000000
      0.0000000	      0.0000000	      0.0000000
     -0.0092450	     -0.0100733	      0.0000000
     -0.0111079	     -0.0129459	      0.0000000
     -0.0087546	     -0.0140174	      0.0000000
     -0.0067169	     -0.0142602	      0.0000000
     -0.0037907	     -0.0141998	      0.0000000
     -0.0011823	     -0.0140052	      0.0000000
      0.0013455	     -0.0137318	      0.0000000
      0.0034514	     -0.0134200	      0.0000000
      0.0051689	     -0.0130809	      0.0000000
      0.0063968	     -0.0127305	      0.0000000
      0.0071395	     -0.0123752	      0.0000000
      0.0073734	     -0.0120224	      0.0000000
      0.0071068	     -0.0116753	      0.0000000
      0.0063425	     -0.0113364	      0.0000000
      0.0050925	     -0.0110067	      0.0000000
      0.0033673	     -0.0106858	      0.0000000
      0.0011785	     -0.0103725	      0.0000000
     -0.0014640	     -0.0100658	      0.0000000
     -0.0045516	     -0.0097640	      0.0000000
     -0.0080777	     -0.0094658	      0.0000000
     -0.0120372	     -0.0091695	      0.0000000
     -0.0164274	     -0.0088735	      0.0000000
     -0.0212459	     -0.0085769	      0.0000000
     -0.0264913	     -0.0082791	      0.0000000
     -0.0321621	     -0.0079795	      0.0000000
     -0.0382568	     -0.0076789	      0.0000000
     -0.0447717	     -0.0073786	      0.0000000
     -0.0517007	     -0.0070804	      0.0000000
     -0.0590341	     -0.0067867	      0.0000000
     -0.0667580	     -0.0065007	      0.0000000
     -0.0748530	     -0.0062261	      0.0000000
     -0.0832937	     -0.0059675	      0.0000000
     -0.0920478	     -0.0057297	      0.0000000
     -0.1010761	     -0.0055179	      0.0000000
     -0.1103311	     -0.0053375	      0.0000000
     -0.1197570	     -0.0051949	      0.0000000
     -0.1292894	     -0.0050960	      0.0000000
     -0.1388558	     -0.0050471	      0.0000000
     -0.1483757	     -0.0050542	      0.0000000
     -0.1577609	     -0.0051232	      0.0000000
     -0.1669164	     -0.0052595	      0.0000000
     -0.1757411	     -0.0054677	      0.0000000
     -0.1841291	     -0.0057525	      0.0000000
     -0.1919703	     -0.0061172	      0.0000000
     -0.1991516	     -0.0065644	      0.0000000
     -0.2055588	     -0.0070954	      0.0000000
     -0.2110782	     -0.0077112	      0.0000000
     -0.2155964	     -0.0084121	      0.0000000
     -0.2190022	     -0.0091967	      0.0000000
     -0.2211894	     -0.0100611	      0.0000000
     -0.2220600	     -0.0109994	      0.0000000
     -0.2215265	     -0.0120034	      0.0000000
     -0.2195145	     -0.0130626	      0.0000000
     -0.2159651	     -0.0141648	      0.0000000
     -0.2108374	     -0.0152956	      0.0000000
     -0.2041104	     -0.0164388	      0.0000000
     -0.1957850	     -0.0175766	      0.0000000
     -0.1858856	     -0.0186898	      0.0000000
     -0.1744615	     -0.0197582	      0.0000000
     -0.1615880	     -0.0207607	      0.0000000
     -0.1473667	     -0.0216759	      0.0000000
     -0.1319255	     -0.0224830	      0.0000000
     -0.1154182	     -0.0231614	      0.0000000
     -0.0980233	     -0.0236925	      0.0000000
     -0.0799419	     -0.0240593	      0.0000000
     -0.0613954	     -0.0242480	      0.0000000
     -0.0426214	     -0.0242479	      0.0000000
     -0.0238701	     -0.0240528	      0.0000000
     -0.0053987	     -0.0236612	      0.0000000
      0.0125344	     -0.0230785	      0.0000000
      0.0296767	     -0.0223148	      0.0000000
      0.0457896	     -0.0213816	      0.0000000
      0.0606519	     -0.0202989	      0.0000000
      0.0740677	     -0.0190901	      0.0000000
      0.0858722	     -0.0177829	      0.0000000
      0.0959362	     -0.0164076	      0.0000000
      0.1041699	     -0.0149965	      0.0000000
      0.1105255	     -0.0135820	      0.0000000
      0.1149973	     -0.0121958	      0.0000000
      0.1176214	     -0.0108672	      0.0000000
      0.1184730	     -0.0096226	      0.0000000
      0.1176619	     -0.0084839	      0.0000000
      0.1153287	     -0.0074685	      0.0000000
      0.1116369	     -0.0065878	      0.0000000
      0.1067672	     -0.0058473	      0.0000000
      0.1009078	     -0.0052424	      0.0000000
      0.0942367	     -0.0047623	      0.0000000
      0.0869239	     -0.0043996	      0.0000000
      0.0791323	     -0.0041444	      0.0000000
      0.0710158	     -0.0039883	      0.0000000
      0.0627198	     -0.0039258	      0.0000000
      0.0543865	     -0.0039554	      0.0000000
      0.0461543	     -0.0040805	      0.0000000
      0.0381739	     -0.0043151	      0.0000000
      0.0306036	     -0.0046767	      0.0000000
      0.0236296	     -0.0051973	      0.0000000
      0.0174474	     -0.0058615	      0.0000000
      0.0121971	     -0.0066345	      0.0000000
      0.0080193	     -0.0070449	      0.0000000
      0.0041400	     -0.0063185	      0.0000000
      0.0000000	      0.0000000	      0.0000000
      0.0000000	      0.0000000	      0.0000000
     -0.0108491	     -0.0143634	      0.0000000
     -0.0138765	     -0.0204069	      0.0000000
     -0.0122237	     -0.0233836	      0.0000000
     -0.0100888	     -0.0245710	      0.0000000
     -0.0065401	     -0.0248482	      0.0000000
     -0.0031037	     -0.0245865	      0.0000000
      0.0002959	     -0.0239898	      0.0000000
      0.0031385	     -0.0231876	      0.0000000
      0.0053728	     -0.0222536	      0.0000000
      0.0068183	     -0.0212448	      0.0000000
      0.0074392	     -0.0201964	      0.0000000
      0.0071796	     -0.0191351	      0.0000000
      0.0060307	     -0.0180770	      0.0000000
      0.0039842	     -0.0170322	      0.0000000
      0.0010471	     -0.0160059	      0.0000000
     -0.0027729	     -0.0149996	      0.0000000
     -0.0074638	     -0.0140124	      0.0000000
     -0.0130145	     -0.0130423	      0.0000000
     -0.0194143	     -0.0120858	      0.0000000
     -0.0266539	     -0.0111398	      0.0000000
     -0.0347252	     -0.0102004	      0.0000000
     -0.0436217	     -0.0092655	      0.0000000
     -0.0533365	     -0.0083339	      0.0000000
     -0.0638620	     -0.0074052	      0.0000000
     -0.0751897	     -0.0064796	      0.0000000
     -0.0873074	     -0.0055598	      0.0000000
     -0.1001988	     -0.0046506	      0.0000000
     -0.1138414	     -0.0037587	      0.0000000
     -0.1282052	     -0.0028926	      0.0000000
     -0.1432515	     -0.0020626	      0.0000000
     -0.1589311	     -0.0012809	      0.0000000
     -0.1751834	     -0.0005613	      0.0000000
     -0.1919351	      0.0000816	      0.0000000
     -0.2090997	      0.0006316	      0.0000000
     -0.2265760	      0.0010709	      0.0000000
     -0.2442494	      0.0013817	      0.0000000
     -0.2619915	      0.0015463	      0.0000000
     -0.2796607	      0.0015475	      0.0000000
     -0.2971032	      0.0013687	      0.0000000
     -0.3141537	      0.0009944	      0.0000000
     -0.3306374	      0.0004107	      0.0000000
     -0.3463711	     -0.0003940	      0.0000000
     -0.3611656	     -0.0014290	      0.0000000
     -0.3748280	     -0.0027022	      0.0000000
     -0.3871641	     -0.0042177	      0.0000000
     -0.3979810	     -0.0059760	      0.0000000
     -0.4070903	     -0.0079761	      0.0000000
     -0.4143099	     -0.0102150	      0.0000000
     -0.4194652	     -0.0126841	      0.0000000
     -0.4223942	     -0.0153689	      0.0000000
     -0.4229515	     -0.0182494	      0.0000000
     -0.4210120	     -0.0212995	      0.0000000
     -0.4164743	     -0.0244881	      0.0000000
     -0.4092643	     -0.0277790	      0.0000000
     -0.3993376	     -0.0311313	      0.0000000
     -0.3866825	     -0.0344996	      0.0000000
     -0.3713218	     -0.0378350	      0.0000000
     -0.3533153	     -0.0410852	      0.0000000
     -0.3327604	     -0.0441959	      0.0000000
     -0.3097935	     -0.0471112	      0.0000000
     -0.2845901	     -0.0497747	      0.0000000
     -0.2573644	     -0.0521310	      0.0000000
     -0.2283685	     -0.0541269	      0.0000000
     -0.1978905	     -0.0557126	      0.0000000
     -0.1662518	     -0.0568436	      0.0000000
     -0.1338036	     -0.0574820	      0.0000000
     -0.1009226	     -0.0575986	      0.0000000
     -0.0680048	     -0.0571743	      0.0000000
     -0.0354603	     -0.0562019	      0.0000000
     -0.0037025	     -0.0546880	      0.0000000
      0.0268531	     -0.0526546	      0.0000000
      0.0558123	     -0.0501376	      0.0000000
      0.0828044	     -0.0471821	      0.0000000
      0.1074940	     -0.0438494	      0.0000000
      0.1295887	     -0.0402106	      0.0000000
      0.1488470	     -0.0363451	      0.0000000
      0.1650859	     -0.0323393	      0.0000000
      0.1781859	     -0.0282818	      0.0000000
      0.1880933	     -0.0242608	      0.0000000
      0.1948215	     -0.0203609	      0.0000000
      0.1984493	     -0.0166595	      0.0000000
      0.1991157	     -0.0132244	      0.0000000
      0.1970154	     -0.0101118	      0.0000000
      0.1923880	     -0.0073625	      0.0000000
      0.1855112	     -0.0050031	      0.0000000
      0.1766849	     -0.0030307	      0.0000000
      0.1662090	     -0.0014252	      0.0000000
      0.1543795	     -0.0001730	      0.0000000
      0.1414871	      0.0007448	      0.0000000
      0.1278170	      0.0013446	      0.0000000
      0.1136410	      0.0016412	      0.0000000
      0.0992250	      0.0016410	      0.0000000
      0.0848265	      0.0013399	      0.0000000
      0.0707146	      0.0007144	      0.0000000
      0.0571516	     -0.0002621	      0.0000000
      0.0444335	     -0.0016333	      0.0000000
      0.0328089	     -0.0033501	      0.0000000
      0.0225487	     -0.0053132	      0.0000000
      0.0137042	     -0.0067677	      0.0000000
      0.0063052	     -0.0066726	      0.0000000
      0.0000000	      0.0000000	      0.0000000
      0.0000000	      0.0000000	      0.0000000
     -0.0110601	     -0.0160140	      0.0000000
     -0.0146584	     -0.0254013	      0.0000000
     -0.0137603	     -0.0307937	      0.0000000
     -0.0121249	     -0.0334366	      0.0000000
     -0.0089014	     -0.0343677	      0.0000000
     -0.0056638	     -0.0341592	      0.0000000
     -0.0024432	     -0.0332041	      0.0000000
      0.0001498	     -0.0317552	      0.0000000
      0.0019895	     -0.0299854	      0.0000000
      0.0028351	     -0.0280165	      0.0000000
      0.0026069	     -0.0259320	      0.0000000
      0.0012141	     -0.0237907	      0.0000000
     -0.0013770	     -0.0216312	      0.0000000
     -0.0051940	     -0.0194782	      0.0000000
     -0.0102434	     -0.0173457	      0.0000000
     -0.0165273	     -0.0152405	      0.0000000
     -0.0240409	     -0.0131639	      0.0000000
     -0.0327778	     -0.0111144	      0.0000000
     -0.0427296	     -0.0090884	      0.0000000
     -0.0538871	     -0.0070828	      0.0000000
     -0.0662408	     -0.0050931	      0.0000000
     -0.0797798	     -0.0031164	      0.0000000
     -0.0944903	     -0.0011531	      0.0000000
     -0.1103557	      0.0007956	      0.0000000
     -0.1273547	      0.0027255	      0.0000000
     -0.1454575	      0.0046274	      0.0000000
     -0.1646277	      0.0064894	      0.0000000
     -0.1848188	      0.0082962	      0.0000000
     -0.2059726	      0.0100287	      0.0000000
     -0.2280172	      0.0116642	      0.0000000
     -0.2508657	      0.0131765	      0.0000000
     -0.2744151	      0.0145369	      0.0000000
     -0.2985447	      0.0157140	      0.0000000
     -0.3231161	      0.0166748	      0.0000000
     -0.3479732	      0.0173852	      0.0000000
     -0.3729429	      0.0178110	      0.0000000
     -0.3978354	      0.0179189	      0.0000000
     -0.4224458	      0.0176766	      0.0000000
     -0.4465559	      0.0170541	      0.0000000
     -0.4699359	      0.0160243	      0.0000000
     -0.4923468	      0.0145633	      0.0000000
     -0.5135434	      0.0126520	      0.0000000
     -0.5332761	      0.0102759	      0.0000000
     -0.5512953	      0.0074263	      0.0000000
     -0.5673532	      0.0041005	      0.0000000
     -0.5812091	      0.0003025	      0.0000000
     -0.5926278	     -0.0039568	      0.0000000
     -0.6013947	     -0.0086638	      0.0000000
     -0.6073082	     -0.0137964	      0.0000000
     -0.6101856	     -0.0193209	      0.0000000
     -0.6098683	     -0.0251934	      0.0000000
     -0.6062250	     -0.0313605	      0.0000000
     -0.5991555	     -0.0377598	      0.0000000
     -0.5885937	     -0.0443205	      0.0000000
     -0.5745104	     -0.0509643	      0.0000000
     -0.5569149	     -0.0576060	      0.0000000
     -0.5358572	     -0.0641548	      0.0000000
     -0.5114295	     -0.0705152	      0.0000000
     -0.4837667	     -0.0765884	      0.0000000
     -0.4530474	     -0.0822737	      0.0000000
     -0.4194936	     -0.0874704	      0.0000000
     -0.3833704	     -0.0920794	      0.0000000
     -0.3449849	     -0.0960055	      0.0000000
     -0.3046843	     -0.0991597	      0.0000000
     -0.2628536	     -0.1014614	      0.0000000
     -0.2199122	     -0.1028414	      0.0000000
     -0.1763096	     -0.1032442	      0.0000000
     -0.1325202	     -0.1026313	      0.0000000
     -0.0890369	     -0.1009837	      0.0000000
     -0.0463647	     -0.0983046	      0.0000000
     -0.0050083	     -0.0946236	      0.0000000
      0.0345252	     -0.0899962	      0.0000000
      0.0717637	     -0.0845080	      0.0000000
      0.1062640	     -0.0782604	      0.0000000
      0.1376318	     -0.0713770	      0.0000000
      0.1655250	     -0.0640001	      0.0000000
      0.1896662	     -0.0562859	      0.0000000
      0.2098510	     -0.0483975	      0.0000000
      0.2259519	     -0.0405014	      0.0000000
      0.2379232	     -0.0327607	      0.0000000
      0.2458010	     -0.0253283	      0.0000000
      0.2497003	     -0.0183427	      0.0000000
      0.2498115	     -0.0119228	      0.0000000
      0.2463884	     -0.0061622	      0.0000000
      0.2397478	     -0.0011280	      0.0000000
      0.2302393	      0.0031621	      0.0000000
      0.2182516	      0.0067241	      0.0000000
      0.2041709	      0.0095719	      0.0000000
      0.1883881	      0.0117301	      0.0000000
      0.1712862	      0.0132256	      0.0000000
      0.1532384	      0.0140845	      0.0000000
      0.1346120	      0.0143213	      0.0000000
      0.1157618	      0.0139348	      0.0000000
      0.0970537	      0.0128990	      0.0000000
      0.0788315	      0.0111841	      0.0000000
      0.0614889	      0.0087478	      0.0000000
      0.0453273	      0.0056701	      0.0000000
      0.0308042	      0.0021107	      0.0000000
      0.0180152	     -0.0011140	      0.0000000
      0.0077905	     -0.0029991	      0.0000000
      0.0000000	      0.0000000	      0.0000000
      0.0000000	      0.0000000	      0.0000000
     -0.0108281	     -0.0187153	      0.0000000
     -0.0146703	     -0.0308659	      0.0000000
     -0.0144596	     -0.0383815	      0.0000000
     -0.0136466	     -0.0424183	      0.0000000
     -0.0113179	     -0.0440222	      0.0000000
     -0.0089866	     -0.0438920	      0.0000000
     -0.0067110	     -0.0425582	      0.0000000
     -0.0051345	     -0.0403907	      0.0000000
     -0.0044266	     -0.0376603	      0.0000000
     -0.0048691	     -0.0345613	      0.0000000
     -0.0065787	     -0.0312326	      0.0000000
     -0.0096780	     -0.0277721	      0.0000000
     -0.0142271	     -0.0242470	      0.0000000
     -0.0202761	     -0.0207014	      0.0000000
     -0.0278503	     -0.0171627	      0.0000000
     -0.0369665	     -0.0136462	      0.0000000
     -0.0476318	     -0.0101583	      0.0000000
     -0.0598482	     -0.0067020	      0.0000000
     -0.0736135	     -0.0032759	      0.0000000
     -0.0889191	      0.0001218	      0.0000000
     -0.1057552	      0.0034941	      0.0000000
     -0.1241001	      0.0068371	      0.0000000
     -0.1439307	      0.0101464	      0.0000000
     -0.1652154	      0.0134148	      0.0000000
     -0.1879146	      0.0166295	      0.0000000
     -0.2119784	      0.0197726	      0.0000000
     -0.2373448	      0.0228216	      0.0000000
     -0.2639371	      0.0257478	      0.0000000
     -0.2916625	      0.0285172	      0.0000000
     -0.3204101	      0.0310903	      0.0000000
     -0.3500496	      0.0334229	      0.0000000
     -0.3804306	      0.0354671	      0.0000000
     -0.4113824	      0.0371721	      0.0000000
     -0.4427138	      0.0384854	      0.0000000
     -0.4742140	      0.0393538	      0.0000000
     -0.5056543	      0.0397253	      0.0000000
     -0.5367891	      0.0395498	      0.0000000
     -0.5673586	      0.0387806	      0.0000000
     -0.5970913	      0.0373754	      0.0000000
     -0.6257068	      0.0352975	      0.0000000
     -0.6529191	      0.0325167	      0.0000000
     -0.6784400	      0.0290102	      0.0000000
     -0.7019824	      0.0247635	      0.0000000
     -0.7232637	      0.0197710	      0.0000000
     -0.7420098	      0.0140364	      0.0000000
     -0.7579578	      0.0075736	      0.0000000
     -0.7708611	      0.0004086	      0.0000000
     -0.7804883	     -0.0074223	      0.0000000
     -0.7866388	     -0.0158767	      0.0000000
     -0.7891334	     -0.0248970	      0.0000000
     -0.7878210	     -0.0344104	      0.0000000
     -0.7825822	     -0.0443308	      0.0000000
     -0.7733318	     -0.0545602	      0.0000000
     -0.7600214	     -0.0649897	      0.0000000
     -0.7426416	     -0.0755005	      0.0000000
     -0.7212227	     -0.0859656	      0.0000000
     -0.6958368	     -0.0962507	      0.0000000
     -0.6665981	     -0.1062160	      0.0000000
     -0.6336637	     -0.1157179	      0.0000000
     -0.5972340	     -0.1246107	      0.0000000
     -0.5575527	     -0.1327491	      0.0000000
     -0.5149067	     -0.1399901	      0.0000000
     -0.4696247	     -0.1461962	      0.0000000
     -0.4220766	     -0.1512379	      0.0000000
     -0.3726716	     -0.1549972	      0.0000000
     -0.3218551	     -0.1573710	      0.0000000
     -0.2701059	     -0.1582744	      0.0000000
     -0.2179317	     -0.1576452	      0.0000000
     -0.1658638	     -0.1554470	      0.0000000
     -0.1144505	     -0.1516737	      0.0000000
     -0.0642511	     -0.1463520	      0.0000000
     -0.0158226	     -0.1395506	      0.0000000
      0.0302766	     -0.1313751	      0.0000000
      0.0735235	     -0.1219755	      0.0000000
      0.1134348	     -0.1115267	      0.0000000
      0.1495788	     -0.1002256	      0.0000000
      0.1815874	     -0.0883020	      0.0000000
      0.2091649	     -0.0759969	      0.0000000
      0.2320952	     -0.0635605	      0.0000000
      0.2502514	     -0.0512438	      0.0000000
      0.2635974	     -0.0392873	      0.0000000
      0.2721875	     -0.0279147	      0.0000000
      0.2761672	     -0.0173237	      0.0000000
      0.2757598	     -0.0076789	      0.0000000
      0.2712733	      0.0008916	      0.0000000
      0.2630652	      0.0083204	      0.0000000
      0.2515817	      0.0145973	      0.0000000
      0.2372578	      0.0197285	      0.0000000
      0.2205518	      0.0237387	      0.0000000
      0.2019193	      0.0266615	      0.0000000
      0.1818121	      0.0285305	      0.0000000
      0.1606797	      0.0293681	      0.0000000
      0.1389574	      0.0291789	      0.0000000
      0.1170937	      0.0279393	      0.0000000
      0.0955044	      0.0256185	      0.0000000
      0.0746776	      0.0221728	      0.0000000
      0.0549839	      0.0176722	      0.0000000
      0.0370888	      0.0122621	      0.0000000
      0.0212101	      0.0066369	      0.0000000
      0.0088357	      0.0016306	      0.0000000
      0.0000000	      0.0000000	      0.0000000
      0.0000000	      0.0000000	      0.0000000
     -0.0106613	     -0.0209330	      0.0000000
     -0.0147252	     -0.0353894	      0.0000000
     -0.0151805	     -0.0447237	      0.0000000
     -0.0153379	     -0.0499659	      0.0000000
     -0.0142087	     -0.0521316	      0.0000000
     -0.0132199	     -0.0519977	      0.0000000
     -0.0124087	     -0.0501974	      0.0000000
     -0.0124089	     -0.0472019	      0.0000000
     -0.0134033	     -0.0433716	      0.0000000
     -0.0156925	     -0.0389721	      0.0000000
     -0.0194168	     -0.0341988	      0.0000000
     -0.0247228	     -0.0291919	      0.0000000
     -0.0316946	     -0.0240497	      0.0000000
     -0.0404041	     -0.0188391	      0.0000000
     -0.0508965	     -0.0136038	      0.0000000
     -0.0632053	     -0.0083711	      0.0000000
     -0.0773524	     -0.0031565	      0.0000000
     -0.0933503	      0.0020321	      0.0000000
     -0.1111999	      0.0071882	      0.0000000
     -0.1308897	      0.0123048	      0.0000000
     -0.1524016	      0.0173750	      0.0000000
     -0.1757075	      0.0223889	      0.0000000
     -0.2007719	      0.0273353	      0.0000000
     -0.2275466	      0.0321969	      0.0000000
     -0.2559711	      0.0369499	      0.0000000
     -0.2859694	      0.0415629	      0.0000000
     -0.3174490	      0.0459973	      0.0000000
     -0.3502981	      0.0502065	      0.0000000
     -0.3843844	      0.0541368	      0.0000000
     -0.4195536	      0.0577280	      0.0000000
     -0.4556294	      0.0609141	      0.0000000
     -0.4924126	      0.0636251	      0.0000000
     -0.5296821	      0.0657885	      0.0000000
     -0.5671959	      0.0673309	      0.0000000
     -0.6046928	      0.0681799	      0.0000000
     -0.6418945	      0.0682658	      0.0000000
     -0.6785086	      0.0675238	      0.0000000
     -0.7142317	      0.0658948	      0.0000000
     -0.7487522	      0.0633276	      0.0000000
     -0.7817548	      0.0597801	      0.0000000
     -0.8129238	      0.0552201	      0.0000000
     -0.8419468	      0.0496268	      0.0000000
     -0.8685186	      0.0429911	      0.0000000
     -0.8923447	      0.0353167	      0.0000000
     -0.9131450	      0.0266206	      0.0000000
     -0.9306567	      0.0169331	      0.0000000
     -0.9446379	      0.0062989	      0.0000000
     -0.9548680	     -0.0052224	      0.0000000
     -0.9611549	     -0.0175582	      0.0000000
     -0.9633363	     -0.0306226	      0.0000000
     -0.9612768	     -0.0443115	      0.0000000
     -0.9548738	     -0.0585042	      0.0000000
     -0.9440591	     -0.0730659	      0.0000000
     -0.9288006	     -0.0878484	      0.0000000
     -0.9091037	     -0.1026928	      0.0000000
     -0.8850121	     -0.1174303	      0.0000000
     -0.8566087	     -0.1318843	      0.0000000
     -0.8240161	     -0.1458717	      0.0000000
     -0.7873975	     -0.1592055	      0.0000000
     -0.7469570	     -0.1716962	      0.0000000
     -0.7029398	     -0.1831545	      0.0000000
     -0.6556323	     -0.1933945	      0.0000000
     -0.6053624	     -0.2022361	      0.0000000
     -0.5524984	     -0.2095086	      0.0000000
     -0.4974484	     -0.2150550	      0.0000000
     -0.4406586	     -0.2187356	      0.0000000
     -0.3826110	     -0.2204330	      0.0000000
     -0.3238203	     -0.2200563	      0.0000000
     -0.2648296	     -0.2175465	      0.0000000
     -0.2062056	     -0.2128810	      0.0000000
     -0.1485317	     -0.2060792	      0.0000000
     -0.0924011	     -0.1972059	      0.0000000
     -0.0384087	     -0.1863820	      0.0000000
      0.0128584	     -0.1737788	      0.0000000
      0.0608267	     -0.1596172	      0.0000000
      0.1049890	     -0.1441639	      0.0000000
      0.1448825	     -0.1277092	      0.0000000
      0.1801220	     -0.1105705	      0.0000000
      0.2103965	     -0.0930870	      0.0000000
      0.2354853	     -0.0756030	      0.0000000
      0.2552640	     -0.0584546	      0.0000000
      0.2697053	     -0.0419625	      0.0000000
      0.2788842	     -0.0264172	      0.0000000
      0.2829657	     -0.0120711	      0.0000000
      0.2822187	      0.0008670	      0.0000000
      0.2769710	      0.0122452	      0.0000000
      0.2676878	      0.0220088	      0.0000000
      0.2548292	      0.0301493	      0.0000000
      0.2388919	      0.0366783	      0.0000000
      0.2203821	      0.0416272	      0.0000000
      0.1998099	      0.0450319	      0.0000000
      0.1776900	      0.0469199	      0.0000000
      0.1545248	      0.0473001	      0.0000000
      0.1308370	      0.0461507	      0.0000000
      0.1071130	      0.0434348	      0.0000000
      0.0839374	      0.0390945	      0.0000000
      0.0617676	      0.0331524	      0.0000000
      0.0414686	      0.0256791	      0.0000000
      0.0233921	      0.0171320	      0.0000000
      0.0095174	      0.0080318	      0.0000000
      0.0000000	      0.0000000	      0.0000000
      0.0000000	      0.0000000	      0.0000000
     -0.0106294	     -0.0233603	      0.0000000
     -0.0149916	     -0.0397331	      0.0000000
     -0.0161816	     -0.0504738	      0.0000000
     -0.0174581	     -0.0565780	      0.0000000
     -0.0177662	     -0.0590548	      0.0000000
     -0.0184466	     -0.0587333	      0.0000000
     -0.0194921	     -0.0563201	      0.0000000