# vtk DataFile Version 2.0
vw
ASCII
DATASET STRUCTURED_POINTS
DIMENSIONS  102  102    1
ORIGIN      0.0000000      0.0000000      0.0000000
SPACING      0.0100000      0.0100000      0.0100000
POINT_DATA  10404
VECTORS velocity float
      0.0000000	      0.0000000	      0.0000000
      0.0000000	      0.0000000	      0.0000000
      0.0000000	      0.0000000	      0.0000000
      0.0000000	      0.0000000	      0.0000000
      0.0000000	      0.0000000	      0.0000000
      0.0000000	      0.0000000	      0.0000000
      0.0000000	      0.0000000	      0.0000000
      0.0000000	      0.0000000	      0.0000000
      0.0000000	      0.0000000	      0.0000000
      0.0000000	      0.0000000	      0.0000000
      0.0000000	      0.0000000	      0.0000000
      0.0000000	      0.0000000	      0.0000000
      0.0000000	      0.0000000	      0.0000000
      0.0000000	      0.0000000	      0.0000000
      0.0000000	      0.0000000	      0.0000000
      0.0000000	      0.0000000	      0.0000000
      0.0000000	      0.0000000	      0.0000000
      0.0000000	      0.0000000	      0.0000000
      0.0000000	      0.0000000	      0.0000000
      0.0000000	      0.0000000	      0.0000000
      0.0000000	      0.0000000	      0.0000000
      0.0000000	      0.0000000	      0.0000000
      0.0000000	      0.0000000	      0.0000000
      0.0000000	      0.0000000	      0.0000000
      0.0000000	      0.0000000	      0.0000000
      0.0000000	      0.0000000	      0.0000000
      0.0000000	      0.0000000	      0.0000000
      0.0000000	      0.0000000	      0.0000000
      0.0000000	      0.0000000	      0.0000000
      0.0000000	      0.0000000	      0.0000000
      0.0000000	      0.0000000	      0.0000000
      0.0000000	      0.0000000	      0.0000000
      0.0000000	      0.0000000	      0.0000000
      0.0000000	      0.0000000	      0.0000000
      0.0000000	      0.0000000	      0.0000000
      0.0000000	      0.0000000	      0.0000000
      0.0000000	      0.0000000	      0.0000000
      0.0000000	      0.0000000	      0.0000000
      0.0000000	      0.0000000	      0.0000000
      0.0000000	      0.0000000	      0.0000000
      0.0000000	      0.0000000	      0.0000000
      0.0000000	      0.0000000	      0.0000000
      0.0000000	      0.0000000	      0.0000000
      0.0000000	      0.0000000	      0.0000000
      0.0000000	      0.0000000	      0.0000000
      0.0000000	      0.0000000	      0.0000000
      0.0000000	      0.0000000	      0.0000000
      0.0000000	      0.0000000	      0.0000000
      0.0000000	      0.0000000	      0.0000000
      0.0000000	      0.0000000	      0.0000000
      0.0000000	      0.0000000	      0.0000000
      0.0000000	      0.0000000	      0.0000000
      0.0000000	      0.0000000	      0.0000000
      0.0000000	      0.0000000	      0.0000000
      0.0000000	      0.0000000	      0.0000000
      0.0000000	      0.0000000	      0.0000000
      0.0000000	      0.0000000	      0.0000000
      0.0000000	      0.0000000	      0.0000000
      0.0000000	      0.0000000	      0.0000000
      0.0000000	      0.0000000	      0.0000000
      0.0000000	      0.0000000	      0.0000000
      0.0000000	      0.0000000	      0.0000000
      0.0000000	      0.0000000	      0.0000000
      0.0000000	      0.0000000	      0.0000000
      0.0000000	      0.0000000	      0.0000000
      0.0000000	      0.0000000	      0.0000000
      0.0000000	      0.0000000	      0.0000000
      0.0000000	      0.0000000	      0.0000000
      0.0000000	      0.0000000	      0.0000000
      0.0000000	      0.0000000	      0.0000000
      0.0000000	      0.0000000	      0.0000000
      0.0000000	      0.0000000	      0.0000000
      0.0000000	      0.0000000	      0.0000000
      0.0000000	      0.0000000	      0.0000000
      0.0000000	      0.0000000	      0.0000000
      0.0000000	      0.0000000	      0.0000000
      0.0000000	      0.0000000	      0.0000000
      0.0000000	      0.0000000	      0.0000000
      0.0000000	      0.0000000	      0.0000000
      0.0000000	      0.0000000	      0.0000000
      0.0000000	      0.0000000	      0.0000000
      0.0000000	      0.0000000	      0.0000000
      0.0000000	      0.0000000	      0.0000000
      0.0000000	      0.0000000	      0.0000000
      0.0000000	      0.0000000	      0.0000000
      0.0000000	      0.0000000	      0.0000000
      0.0000000	      0.0000000	      0.0000000
      0.0000000	      0.0000000	      0.0000000
      0.0000000	      0.0000000	      0.0000000
      0.0000000	      0.0000000	      0.0000000
      0.0000000	      0.0000000	      0.0000000
      0.0000000	      0.0000000	      0.0000000
      0.0000000	      0.0000000	      0.0000000
      0.0000000	      0.0000000	      0.0000000
      0.0000000	      0.0000000	      0.0000000
      0.0000000	      0.0000000	      0.0000000
      0.0000000	      0.0000000	      0.0000000
      0.0000000	      0.0000000	      0.0000000
      0.0000000	      0.0000000	      0.0000000
      0.0000000	      0.0000000	      0.0000000
      0.0000000	      0.0000000	      0.0000000
      0.0000000	      0.0000000	      0.0000000
      0.0000000	      0.0000000	      0.0000000
     -0.0013872	     -0.0018639	      0.0000000
     -0.0014601	     -0.0023864	      0.0000000
     -0.0008317	     -0.0025567	      0.0000000
     -0.0004562	     -0.0024885	      0.0000000
     -0.0000121	     -0.0023698	      0.0000000
      0.0001243	     -0.0022173	      0.0000000
      0.0001461	     -0.0020714	      0.0000000
     -0.0000969	     -0.0019339	      0.0000000
     -0.0004857	     -0.0018130	      0.0000000
     -0.0010771	     -0.0017074	      0.0000000
     -0.0017975	     -0.0016168	      0.0000000
     -0.0026663	     -0.0015387	      0.0000000
     -0.0036393	     -0.0014709	      0.0000000
     -0.0047224	     -0.0014110	      0.0000000
     -0.0058908	     -0.0013565	      0.0000000
     -0.0071470	     -0.0013057	      0.0000000
     -0.0084784	     -0.0012570	      0.0000000
     -0.0098871	     -0.0012091	      0.0000000
     -0.0113675	     -0.0011614	      0.0000000
     -0.0129215	     -0.0011133	      0.0000000
     -0.0145467	     -0.0010649	      0.0000000
     -0.0162442	     -0.0010161	      0.0000000
     -0.0180124	     -0.0009674	      0.0000000
     -0.0198508	     -0.0009191	      0.0000000
     -0.0217568	     -0.0008720	      0.0000000
     -0.0237278	     -0.0008266	      0.0000000
     -0.0257597	     -0.0007838	      0.0000000
     -0.0278473	     -0.0007442	      0.0000000
     -0.0299842	     -0.0007088	      0.0000000
     -0.0321626	     -0.0006784	      0.0000000
     -0.0343733	     -0.0006540	      0.0000000
     -0.0366058	     -0.0006364	      0.0000000
     -0.0388479	     -0.0006267	      0.0000000
     -0.0410861	     -0.0006259	      0.0000000
     -0.0433052	     -0.0006350	      0.0000000
     -0.0454883	     -0.0006549	      0.0000000
     -0.0476172	     -0.0006869	      0.0000000
     -0.0496720	     -0.0007318	      0.0000000
     -0.0516313	     -0.0007907	      0.0000000
     -0.0534724	     -0.0008645	      0.0000000
     -0.0551711	     -0.0009540	      0.0000000
     -0.0567026	     -0.0010597	      0.0000000
     -0.0580412	     -0.0011822	      0.0000000
     -0.0591607	     -0.0013217	      0.0000000
     -0.0600351	     -0.0014780	      0.0000000
     -0.0606387	     -0.0016508	      0.0000000
     -0.0609471	     -0.0018392	      0.0000000
     -0.0609375	     -0.0020421	      0.0000000
     -0.0605889	     -0.0022580	      0.0000000
     -0.0598834	     -0.0024851	      0.0000000
     -0.0588057	     -0.0027214	      0.0000000
     -0.0573440	     -0.0029644	      0.0000000
     -0.0554909	     -0.0032114	      0.0000000
     -0.0532430	     -0.0034593	      0.0000000
     -0.0506022	     -0.0037046	      0.0000000
     -0.0475756	     -0.0039437	      0.0000000
     -0.0441761	     -0.0041727	      0.0000000
     -0.0404225	     -0.0043876	      0.0000000
     -0.0363397	     -0.0045843	      0.0000000
     -0.0319586	     -0.0047586	      0.0000000
     -0.0273164	     -0.0049067	      0.0000000
     -0.0224556	     -0.0050251	      0.0000000
     -0.0174239	     -0.0051104	      0.0000000
     -0.0122738	     -0.0051599	      0.0000000
     -0.0070610	     -0.0051716	      0.0000000
     -0.0018444	     -0.0051441	      0.0000000
      0.0033159	     -0.0050769	      0.0000000
      0.0083593	     -0.0049706	      0.0000000
      0.0132261	     -0.0048261	      0.0000000
      0.0178592	     -0.0046456	      0.0000000
      0.0222043	     -0.0044319	      0.0000000
      0.0262124	     -0.0041887	      0.0000000
      0.0298396	     -0.0039203	      0.0000000
      0.0330493	     -0.0036315	      0.0000000
      0.0358116	     -0.0033274	      0.0000000
      0.0381048	     -0.0030135	      0.0000000
      0.0399150	     -0.0026952	      0.0000000
      0.0412368	     -0.0023778	      0.0000000
      0.0420719	     -0.0020662	      0.0000000
      0.0424305	     -0.0017651	      0.0000000
      0.0423278	     -0.0014784	      0.0000000
      0.0417876	     -0.0012096	      0.0000000
      0.0408351	     -0.0009611	      0.0000000
      0.0395037	     -0.0007343	      0.0000000
      0.0378222	     -0.0005293	      0.0000000
      0.0358292	     -0.0003471	      0.0000000
      0.0335547	     -0.0001877	      0.0000000
      0.0310434	     -0.0000524	      0.0000000
      0.0283243	      0.0000591	      0.0000000
      0.0254506	      0.0001439	      0.0000000
      0.0224501	      0.0002017	      0.0000000
      0.0193914	      0.0002255	      0.0000000
      0.0163042	      0.0002138	      0.0000000
      0.0132831	      0.0001510	      0.0000000
      0.0103672	      0.0000365	      0.0000000
      0.0076853	     -0.0001591	      0.0000000
      0.0052964	     -0.0004163	      0.0000000
      0.0033315	     -0.0007668	      0.0000000
      0.0018601	     -0.0010477	      0.0000000
      0.0007764	     -0.0011400	      0.0000000
      0.0000000	      0.0000000	      0.0000000
      0.0000000	      0.0000000	      0.0000000
     -0.0016166	     -0.0028217	      0.0000000
     -0.0018372	     -0.0038420	      0.0000000
     -0.0014087	     -0.0042078	      0.0000000
     -0.0011849	     -0.0040875	      0.0000000
     -0.0009305	     -0.0038030	      0.0000000
     -0.0010711	     -0.0034086	      0.0000000
     -0.0014329	     -0.0030042	      0.0000000
     -0.0021937	     -0.0026049	      0.0000000
     -0.0032259	     -0.0022411	      0.0000000
     -0.0045912	     -0.0019124	      0.0000000
     -0.0062003	     -0.0016245	      0.0000000
     -0.0080676	     -0.0013710	      0.0000000
     -0.0101343	     -0.0011486	      0.0000000
     -0.0123998	     -0.0009498	      0.0000000
     -0.0148289	     -0.0007698	      0.0000000
     -0.0174187	     -0.0006024	      0.0000000
     -0.0201502	     -0.0004435	      0.0000000
     -0.0230222	     -0.0002894	      0.0000000
     -0.0260253	     -0.0001379	      0.0000000
     -0.0291595	      0.0000124	      0.0000000
     -0.0324199	      0.0001620	      0.0000000
     -0.0358056	      0.0003107	      0.0000000
     -0.0393128	      0.0004574	      0.0000000
     -0.0429383	      0.0006009	      0.0000000
     -0.0466765	      0.0007392	      0.0000000
     -0.0505210	      0.0008705	      0.0000000
     -0.0544630	      0.0009923	      0.0000000
     -0.0584920	      0.0011023	      0.0000000
     -0.0625949	      0.0011977	      0.0000000
     -0.0667566	      0.0012758	      0.0000000
     -0.0709596	      0.0013338	      0.0000000
     -0.0751835	      0.0013686	      0.0000000
     -0.0794057	      0.0013773	      0.0000000
     -0.0836007	      0.0013566	      0.0000000
     -0.0877402	      0.0013033	      0.0000000
     -0.0917934	      0.0012144	      0.0000000
     -0.0957267	      0.0010866	      0.0000000
     -0.0995039	      0.0009168	      0.0000000
     -0.1030863	      0.0007021	      0.0000000
     -0.1064332	      0.0004401	      0.0000000
     -0.1095016	      0.0001283	      0.0000000
     -0.1122473	     -0.0002348	      0.0000000
     -0.1146248	     -0.0006505	      0.0000000
     -0.1165886	     -0.0011190	      0.0000000
     -0.1180933	     -0.0016398	      0.0000000
     -0.1190947	     -0.0022112	      0.0000000
     -0.1195509	     -0.0028303	      0.0000000
     -0.1194232	     -0.0034935	      0.0000000
     -0.1186768	     -0.0041958	      0.0000000
     -0.1172815	     -0.0049316	      0.0000000
     -0.1152127	     -0.0056943	      0.0000000
     -0.1124518	     -0.0064762	      0.0000000
     -0.1089874	     -0.0072686	      0.0000000
     -0.1048160	     -0.0080619	      0.0000000
     -0.0999424	     -0.0088456	      0.0000000
     -0.0943807	     -0.0096086	      0.0000000
     -0.0881546	     -0.0103389	      0.0000000
     -0.0812979	     -0.0110244	      0.0000000
     -0.0738547	     -0.0116526	      0.0000000
     -0.0658793	     -0.0122114	      0.0000000
     -0.0574359	     -0.0126890	      0.0000000
     -0.0485981	     -0.0130746	      0.0000000
     -0.0394482	     -0.0133584	      0.0000000
     -0.0300764	     -0.0135320	      0.0000000
     -0.0205788	     -0.0135893	      0.0000000
     -0.0110567	     -0.0135257	      0.0000000
     -0.0016141	     -0.0133396	      0.0000000
      0.0076437	     -0.0130316	      0.0000000
      0.0166125	     -0.0126051	      0.0000000
      0.0251914	     -0.0120656	      0.0000000
      0.0332849	     -0.0114217	      0.0000000
      0.0408048	     -0.0106837	      0.0000000
      0.0476719	     -0.0098643	      0.0000000
      0.0538178	     -0.0089776	      0.0000000
      0.0591860	     -0.0080389	      0.0000000
      0.0637332	     -0.0070645	      0.0000000
      0.0674291	     -0.0060706	      0.0000000
      0.0702579	     -0.0050734	      0.0000000
      0.0722161	     -0.0040883	      0.0000000
      0.0733148	     -0.0031296	      0.0000000
      0.0735751	     -0.0022103	      0.0000000
      0.0730316	     -0.0013414	      0.0000000
      0.0717249	     -0.0005316	      0.0000000
      0.0697081	      0.0002139	      0.0000000
      0.0670322	      0.0008921	      0.0000000
      0.0637626	      0.0014985	      0.0000000
      0.0599563	      0.0020311	      0.0000000
      0.0556896	      0.0024856	      0.0000000
      0.0510222	      0.0028603	      0.0000000
      0.0460449	      0.0031474	      0.0000000
      0.0408193	      0.0033432	      0.0000000
      0.0354601	      0.0034307	      0.0000000
      0.0300339	      0.0034033	      0.0000000
      0.0246931	      0.0032270	      0.0000000
      0.0195128	      0.0028980	      0.0000000
      0.0146938	      0.0023603	      0.0000000
      0.0103117	      0.0016540	      0.0000000
      0.0065943	      0.0007245	      0.0000000
      0.0035712	     -0.0001498	      0.0000000
      0.0013984	     -0.0008453	      0.0000000
      0.0000000	      0.0000000	      0.0000000
      0.0000000	      0.0000000	      0.0000000
     -0.0017296	     -0.0033014	      0.0000000
     -0.0021711	     -0.0048289	      0.0000000
     -0.0020967	     -0.0053754	      0.0000000
     -0.0022768	     -0.0051841	      0.0000000
     -0.0025121	     -0.0046604	      0.0000000
     -0.0032185	     -0.0039203	      0.0000000
     -0.0042441	     -0.0031335	      0.0000000
     -0.0057648	     -0.0023408	      0.0000000
     -0.0076584	     -0.0016045	      0.0000000
     -0.0099806	     -0.0009294	      0.0000000
     -0.0126387	     -0.0003306	      0.0000000
     -0.0156388	      0.0002021	      0.0000000
     -0.0189160	      0.0006723	      0.0000000
     -0.0224619	      0.0010941	      0.0000000
     -0.0262353	      0.0014762	      0.0000000
     -0.0302278	      0.0018304	      0.0000000
     -0.0344156	      0.0021644	      0.0000000
     -0.0387935	      0.0024857	      0.0000000
     -0.0433486	      0.0027984	      0.0000000
     -0.0480776	      0.0031059	      0.0000000
     -0.0529730	      0.0034088	      0.0000000
     -0.0580310	      0.0037068	      0.0000000
     -0.0632447	      0.0039980	      0.0000000
     -0.0686078	      0.0042798	      0.0000000
     -0.0741111	      0.0045486	      0.0000000
     -0.0797440	      0.0048003	      0.0000000
     -0.0854930	      0.0050301	      0.0000000
     -0.0913423	      0.0052330	      0.0000000
     -0.0972729	      0.0054037	      0.0000000
     -0.1032631	      0.0055364	      0.0000000
     -0.1092874	      0.0056253	      0.0000000
     -0.1153175	      0.0056643	      0.0000000
     -0.1213214	      0.0056471	      0.0000000
     -0.1272635	      0.0055673	      0.0000000
     -0.1331048	      0.0054185	      0.0000000
     -0.1388028	      0.0051941	      0.0000000
     -0.1443112	      0.0048879	      0.0000000
     -0.1495809	      0.0044939	      0.0000000
     -0.1545591	      0.0040063	      0.0000000
     -0.1591909	      0.0034201	      0.0000000
     -0.1634184	      0.0027311	      0.0000000
     -0.1671825	      0.0019361	      0.0000000
     -0.1704227	      0.0010334	      0.0000000
     -0.1730784	      0.0000226	      0.0000000
     -0.1750896	     -0.0010944	      0.0000000
     -0.1763986	     -0.0023138	      0.0000000
     -0.1769507	     -0.0036293	      0.0000000
     -0.1766959	     -0.0050328	      0.0000000
     -0.1755894	     -0.0065140	      0.0000000
     -0.1735930	     -0.0080612	      0.0000000
     -0.1706757	     -0.0096605	      0.0000000
     -0.1668148	     -0.0112961	      0.0000000
     -0.1619967	     -0.0129504	      0.0000000
     -0.1562182	     -0.0146040	      0.0000000
     -0.1494869	     -0.0162358	      0.0000000
     -0.1418223	     -0.0178233	      0.0000000
     -0.1332564	     -0.0193427	      0.0000000
     -0.1238341	     -0.0207698	      0.0000000
     -0.1136131	     -0.0220799	      0.0000000
     -0.1026644	     -0.0232490	      0.0000000
     -0.0910718	     -0.0242536	      0.0000000
     -0.0789311	     -0.0250721	      0.0000000
     -0.0663495	     -0.0256848	      0.0000000
     -0.0534440	     -0.0260753	      0.0000000
     -0.0403404	     -0.0262303	      0.0000000
     -0.0271708	     -0.0261406	      0.0000000
     -0.0140721	     -0.0258018	      0.0000000
     -0.0011834	     -0.0252142	      0.0000000
      0.0113565	     -0.0243834	      0.0000000
      0.0234121	     -0.0233203	      0.0000000
      0.0348539	     -0.0220401	      0.0000000
      0.0455612	     -0.0205632	      0.0000000
      0.0554241	     -0.0189138	      0.0000000
      0.0643459	     -0.0171191	      0.0000000
      0.0722447	     -0.0152095	      0.0000000
      0.0790551	     -0.0132169	      0.0000000
      0.0847286	     -0.0111737	      0.0000000
      0.0892352	     -0.0091127	      0.0000000
      0.0925618	     -0.0070652	      0.0000000
      0.0947140	     -0.0050608	      0.0000000
      0.0957116	     -0.0031265	      0.0000000
      0.0955928	     -0.0012862	      0.0000000
      0.0944055	      0.0004407	      0.0000000
      0.0922148	      0.0020403	      0.0000000
      0.0890884	      0.0035030	      0.0000000
      0.0851104	      0.0048184	      0.0000000
      0.0803591	      0.0059797	      0.0000000
      0.0749351	      0.0069777	      0.0000000
      0.0689235	      0.0078054	      0.0000000
      0.0624447	      0.0084482	      0.0000000
      0.0555892	      0.0088949	      0.0000000
      0.0485072	      0.0091170	      0.0000000
      0.0412955	      0.0090967	      0.0000000
      0.0341497	      0.0087827	      0.0000000
      0.0271716	      0.0081609	      0.0000000
      0.0206175	      0.0071571	      0.0000000
      0.0145757	      0.0058189	      0.0000000
      0.0093667	      0.0040920	      0.0000000
      0.0050112	      0.0022929	      0.0000000
      0.0019143	      0.0005516	      0.0000000
      0.0000000	      0.0000000	      0.0000000
      0.0000000	      0.0000000	      0.0000000
     -0.0017850	     -0.0038595	      0.0000000
     -0.0024923	     -0.0056562	      0.0000000
     -0.0029117	     -0.0062233	      0.0000000
     -0.0036962	     -0.0058447	      0.0000000
     -0.0046630	     -0.0049951	      0.0000000
     -0.0061751	     -0.0038357	      0.0000000
     -0.0080970	     -0.0025946	      0.0000000
     -0.0105853	     -0.0013384	      0.0000000
     -0.0135253	     -0.0001594	      0.0000000
     -0.0169632	      0.0009300	      0.0000000
     -0.0208064	      0.0019048	      0.0000000
     -0.0250539	      0.0027774	      0.0000000
     -0.0296379	      0.0035522	      0.0000000
     -0.0345441	      0.0042492	      0.0000000
     -0.0397278	      0.0048811	      0.0000000
     -0.0451752	      0.0054659	      0.0000000
     -0.0508593	      0.0060149	      0.0000000
     -0.0567706	      0.0065398	      0.0000000
     -0.0628931	      0.0070470	      0.0000000
     -0.0692200	      0.0075415	      0.0000000
     -0.0757405	      0.0080244	      0.0000000
     -0.0824475	      0.0084954	      0.0000000
     -0.0893309	      0.0089515	      0.0000000
     -0.0963807	      0.0093885	      0.0000000
     -0.1035840	      0.0098007	      0.0000000
     -0.1109262	      0.0101816	      0.0000000
     -0.1183893	      0.0105236	      0.0000000
     -0.1259528	      0.0108186	      0.0000000
     -0.1335922	      0.0110582	      0.0000000
     -0.1412801	      0.0112330	      0.0000000
     -0.1489847	      0.0113337	      0.0000000
     -0.1566706	      0.0113504	      0.0000000
     -0.1642982	      0.0112731	      0.0000000
     -0.1718239	      0.0110915	      0.0000000
     -0.1791998	      0.0107952	      0.0000000
     -0.1863740	      0.0103741	      0.0000000
     -0.1932904	      0.0098181	      0.0000000
     -0.1998893	      0.0091178	      0.0000000
     -0.2061072	      0.0082644	      0.0000000
     -0.2118777	      0.0072501	      0.0000000
     -0.2171320	      0.0060688	      0.0000000
     -0.2217991	      0.0047157	      0.0000000
     -0.2258073	      0.0031885	      0.0000000
     -0.2290847	      0.0014875	      0.0000000
     -0.2315607	     -0.0003840	      0.0000000
     -0.2331669	     -0.0024190	      0.0000000
     -0.2338390	     -0.0046070	      0.0000000
     -0.2335189	     -0.0069338	      0.0000000
     -0.2321546	     -0.0093832	      0.0000000
     -0.2297020	     -0.0119354	      0.0000000
     -0.2261254	     -0.0145683	      0.0000000
     -0.2213990	     -0.0172564	      0.0000000
     -0.2155074	     -0.0199718	      0.0000000
     -0.2084471	     -0.0226834	      0.0000000
     -0.2002272	     -0.0253577	      0.0000000
     -0.1908706	     -0.0279592	      0.0000000
     -0.1804141	     -0.0304507	      0.0000000
     -0.1689095	     -0.0327937	      0.0000000
     -0.1564234	     -0.0349497	      0.0000000
     -0.1430379	     -0.0368804	      0.0000000
     -0.1288493	     -0.0385493	      0.0000000
     -0.1139686	     -0.0399217	      0.0000000
     -0.0985197	     -0.0409668	      0.0000000
     -0.0826387	     -0.0416576	      0.0000000
     -0.0664720	     -0.0419726	      0.0000000
     -0.0501745	     -0.0418964	      0.0000000
     -0.0339072	     -0.0414203	      0.0000000
     -0.0178349	     -0.0405430	      0.0000000
     -0.0021234	     -0.0392716	      0.0000000
      0.0130636	     -0.0376212	      0.0000000
      0.0275677	     -0.0356151	      0.0000000
      0.0412398	     -0.0332834	      0.0000000
      0.0539424	     -0.0306630	      0.0000000
      0.0655523	     -0.0277962	      0.0000000
      0.0759624	     -0.0247296	      0.0000000
      0.0850851	     -0.0215135	      0.0000000
      0.0928515	     -0.0181993	      0.0000000
      0.0992148	     -0.0148390	      0.0000000
      0.1041478	     -0.0114833	      0.0000000
      0.1076461	     -0.0081805	      0.0000000
      0.1097231	     -0.0049752	      0.0000000
      0.1104145	     -0.0019076	      0.0000000
      0.1097693	      0.0009877	      0.0000000
      0.1078592	      0.0036838	      0.0000000
      0.1047627	      0.0061613	      0.0000000
      0.1005769	      0.0084018	      0.0000000
      0.0953958	      0.0103909	      0.0000000
      0.0893395	      0.0121119	      0.0000000
      0.0825126	      0.0135509	      0.0000000
      0.0750603	      0.0146844	      0.0000000
      0.0670952	      0.0154925	      0.0000000
      0.0587969	      0.0159342	      0.0000000
      0.0502838	      0.0159801	      0.0000000
      0.0417869	      0.0155621	      0.0000000
      0.0334233	      0.0146540	      0.0000000
      0.0254986	      0.0131635	      0.0000000
      0.0181050	      0.0111310	      0.0000000
      0.0116588	      0.0084876	      0.0000000
      0.0061810	      0.0055329	      0.0000000
      0.0023125	      0.0023657	      0.0000000
      0.0000000	      0.0000000	      0.0000000
      0.0000000	      0.0000000	      0.0000000
     -0.0018990	     -0.0040778	      0.0000000
     -0.0029412	     -0.0059250	      0.0000000
     -0.0039356	     -0.0063403	      0.0000000
     -0.0054441	     -0.0056446	      0.0000000
     -0.0072839	     -0.0043588	      0.0000000
     -0.0097612	     -0.0026870	      0.0000000
     -0.0127425	     -0.0009055	      0.0000000
     -0.0163566	      0.0008933	      0.0000000
     -0.0204906	      0.0025898	      0.0000000
     -0.0251760	      0.0041624	      0.0000000
     -0.0303205	      0.0055772	      0.0000000
     -0.0359146	      0.0068488	      0.0000000
     -0.0418891	      0.0079822	      0.0000000
     -0.0482242	      0.0090038	      0.0000000
     -0.0548728	      0.0099307	      0.0000000
     -0.0618169	      0.0107870	      0.0000000
     -0.0690268	      0.0115881	      0.0000000
     -0.0764892	      0.0123501	      0.0000000
     -0.0841854	      0.0130816	      0.0000000
     -0.0921052	      0.0137897	      0.0000000
     -0.1002349	      0.0144759	      0.0000000
     -0.1085641	      0.0151396	      0.0000000
     -0.1170795	      0.0157768	      0.0000000
     -0.1257680	      0.0163815	      0.0000000
     -0.1346132	      0.0169458	      0.0000000
     -0.1435971	      0.0174602	      0.0000000
     -0.1526979	      0.0179143	      0.0000000
     -0.1618911	      0.0182964	      0.0000000
     -0.1711483	      0.0185942	      0.0000000
     -0.1804370	      0.0187947	      0.0000000
     -0.1897209	      0.0188842	      0.0000000
     -0.1989590	      0.0188486	      0.0000000
     -0.2081061	      0.0186735	      0.0000000
     -0.2171121	      0.0183441	      0.0000000
     -0.2259225	      0.0178457	      0.0000000
     -0.2344780	      0.0171636	      0.0000000
     -0.2427149	      0.0162837	      0.0000000
     -0.2505654	      0.0151926	      0.0000000
     -0.2579577	      0.0138780	      0.0000000
     -0.2648166	      0.0123292	      0.0000000
     -0.2710644	      0.0105378	      0.0000000
     -0.2766213	      0.0084976	      0.0000000
     -0.2814064	      0.0062058	      0.0000000
     -0.2853391	      0.0036634	      0.0000000
     -0.2883401	      0.0008756	      0.0000000
     -0.2903327	     -0.0021471	      0.0000000
     -0.2912445	     -0.0053886	      0.0000000
     -0.2910101	     -0.0088281	      0.0000000
     -0.2895713	     -0.0124413	      0.0000000
     -0.2868785	     -0.0162002	      0.0000000
     -0.2828912	     -0.0200726	      0.0000000
     -0.2775796	     -0.0240224	      0.0000000
     -0.2709255	     -0.0280094	      0.0000000
     -0.2629231	     -0.0319898	      0.0000000
     -0.2535807	     -0.0359161	      0.0000000
     -0.2429210	     -0.0397381	      0.0000000
     -0.2309822	     -0.0434029	      0.0000000
     -0.2178189	     -0.0468564	      0.0000000
     -0.2035020	     -0.0500439	      0.0000000
     -0.1881189	     -0.0529114	      0.0000000
     -0.1717739	     -0.0554064	      0.0000000
     -0.1545868	     -0.0574800	      0.0000000
     -0.1366928	     -0.0590872	      0.0000000
     -0.1182411	     -0.0601891	      0.0000000
     -0.0993931	     -0.0607537	      0.0000000
     -0.0803206	     -0.0607573	      0.0000000
     -0.0612039	     -0.0601853	      0.0000000
     -0.0422283	     -0.0590337	      0.0000000
     -0.0235824	     -0.0573090	      0.0000000
     -0.0054538	     -0.0550296	      0.0000000
      0.0119730	     -0.0522254	      0.0000000
      0.0285216	     -0.0489377	      0.0000000
      0.0440270	     -0.0452168	      0.0000000
      0.0583399	     -0.0411204	      0.0000000
      0.0713274	     -0.0367143	      0.0000000
      0.0828773	     -0.0320689	      0.0000000
      0.0928989	     -0.0272575	      0.0000000
      0.1013251	     -0.0223547	      0.0000000
      0.1081121	     -0.0174338	      0.0000000
      0.1132415	     -0.0125658	      0.0000000
      0.1167165	     -0.0078169	      0.0000000
      0.1185660	     -0.0032477	      0.0000000
      0.1188367	      0.0010876	      0.0000000
      0.1176010	      0.0051440	      0.0000000
      0.1149444	      0.0088890	      0.0000000
      0.1109734	      0.0122929	      0.0000000
      0.1057939	      0.0153310	      0.0000000
      0.0995408	      0.0179770	      0.0000000
      0.0923348	      0.0202073	      0.0000000
      0.0843406	      0.0219883	      0.0000000
      0.0756888	      0.0232890	      0.0000000
      0.0665835	      0.0240558	      0.0000000
      0.0571602	      0.0242451	      0.0000000
      0.0476806	      0.0237733	      0.0000000
      0.0382751	      0.0225961	      0.0000000
      0.0292951	      0.0206055	      0.0000000
      0.0208415	      0.0178161	      0.0000000
      0.0134201	      0.0141410	      0.0000000
      0.0070623	      0.0098097	      0.0000000
      0.0026015	      0.0048604	      0.0000000
      0.0000000	      0.0000000	      0.0000000
      0.0000000	      0.0000000	      0.0000000
     -0.0020480	     -0.0041542	      0.0000000
     -0.0034808	     -0.0058063	      0.0000000
     -0.0051302	     -0.0058601	      0.0000000
     -0.0074650	     -0.0046760	      0.0000000
     -0.0102994	     -0.0028262	      0.0000000
     -0.0138722	     -0.0005458	      0.0000000
     -0.0180466	      0.0018503	      0.0000000