# vtk DataFile Version 2.0
vw
ASCII
DATASET STRUCTURED_POINTS
DIMENSIONS  102  102    1
ORIGIN      0.0000000      0.0000000      0.0000000
SPACING      0.0100000      0.0100000      0.0100000
POINT_DATA  10404
VECTORS velocity float
      0.0000000	      0.0000000	      0.0000000
      0.0000000	      0.0000000	      0.0000000
      0.0000000	      0.0000000	      0.0000000
      0.0000000	      0.0000000	      0.0000000
      0.0000000	      0.0000000	      0.0000000
      0.0000000	      0.0000000	      0.0000000
      0.0000000	      0.0000000	      0.0000000
      0.0000000	      0.0000000	      0.0000000
      0.0000000	      0.0000000	      0.0000000
      0.0000000	      0.0000000	      0.0000000
      0.0000000	      0.0000000	      0.0000000
      0.0000000	      0.0000000	      0.0000000
      0.0000000	      0.0000000	      0.0000000
      0.0000000	      0.0000000	      0.0000000
      0.0000000	      0.0000000	      0.0000000
      0.0000000	      0.0000000	      0.0000000
      0.0000000	      0.0000000	      0.0000000
      0.0000000	      0.0000000	      0.0000000
      0.0000000	      0.0000000	      0.0000000
      0.0000000	      0.0000000	      0.0000000
      0.0000000	      0.0000000	      0.0000000
      0.0000000	      0.0000000	      0.0000000
      0.0000000	      0.0000000	      0.0000000
      0.0000000	      0.0000000	      0.0000000
      0.0000000	      0.0000000	      0.0000000
      0.0000000	      0.0000000	      0.0000000
      0.0000000	      0.0000000	      0.0000000
      0.0000000	      0.0000000	      0.0000000
      0.0000000	      0.0000000	      0.0000000
      0.0000000	      0.0000000	      0.0000000
      0.0000000	      0.0000000	      0.0000000
      0.0000000	      0.0000000	      0.0000000
      0.0000000	      0.0000000	      0.0000000
      0.0000000	      0.0000000	      0.0000000
      0.0000000	      0.0000000	      0.0000000
      0.0000000	      0.0000000	      0.0000000
      0.0000000	      0.0000000	      0.0000000
      0.0000000	      0.0000000	      0.0000000
      0.0000000	      0.0000000	      0.0000000
      0.0000000	      0.0000000	      0.0000000
      0.0000000	      0.0000000	      0.0000000
      0.0000000	      0.0000000	      0.0000000
      0.0000000	      0.0000000	      0.0000000
      0.0000000	      0.0000000	      0.0000000
      0.0000000	      0.0000000	      0.0000000
      0.0000000	      0.0000000	      0.0000000
      0.0000000	      0.0000000	      0.0000000
      0.0000000	      0.0000000	      0.0000000
      0.0000000	      0.0000000	      0.0000000
      0.0000000	      0.0000000	      0.0000000
      0.0000000	      0.0000000	      0.0000000
      0.0000000	      0.0000000	      0.0000000
      0.0000000	      0.0000000	      0.0000000
      0.0000000	      0.0000000	      0.0000000
      0.0000000	      0.0000000	      0.0000000
      0.0000000	      0.0000000	      0.0000000
      0.0000000	      0.0000000	      0.0000000
      0.0000000	      0.0000000	      0.0000000
      0.0000000	      0.0000000	      0.0000000
      0.0000000	      0.0000000	      0.0000000
      0.0000000	      0.0000000	      0.0000000
      0.0000000	      0.0000000	      0.0000000
      0.0000000	      0.0000000	      0.0000000
      0.0000000	      0.0000000	      0.0000000
      0.0000000	      0.0000000	      0.0000000
      0.0000000	      0.0000000	      0.0000000
      0.0000000	      0.0000000	      0.0000000
      0.0000000	      0.0000000	      0.0000000
      0.0000000	      0.0000000	      0.0000000
      0.0000000	      0.0000000	      0.0000000
      0.0000000	      0.0000000	      0.0000000
      0.0000000	      0.0000000	      0.0000000
      0.0000000	      0.0000000	      0.0000000
      0.0000000	      0.0000000	      0.0000000
      0.0000000	      0.0000000	      0.0000000
      0.0000000	      0.0000000	      0.0000000
      0.0000000	      0.0000000	      0.0000000
      0.0000000	      0.0000000	      0.0000000
      0.0000000	      0.0000000	      0.0000000
      0.0000000	      0.0000000	      0.0000000
      0.0000000	      0.0000000	      0.0000000
      0.0000000	      0.0000000	      0.0000000
      0.0000000	      0.0000000	      0.0000000
      0.0000000	      0.0000000	      0.0000000
      0.0000000	      0.0000000	      0.0000000
      0.0000000	      0.0000000	      0.0000000
      0.0000000	      0.0000000	      0.0000000
      0.0000000	      0.0000000	      0.0000000
      0.0000000	      0.0000000	      0.0000000
      0.0000000	      0.0000000	      0.0000000
      0.0000000	      0.0000000	      0.0000000
      0.0000000	      0.0000000	      0.0000000
      0.0000000	      0.0000000	      0.0000000
      0.0000000	      0.0000000	      0.0000000
      0.0000000	      0.0000000	      0.0000000
      0.0000000	      0.0000000	      0.0000000
      0.0000000	      0.0000000	      0.0000000
      0.0000000	      0.0000000	      0.0000000
      0.0000000	      0.0000000	      0.0000000
      0.0000000	      0.0000000	      0.0000000
      0.0000000	      0.0000000	      0.0000000
      0.0000000	      0.0000000	      0.0000000
      0.0000000	      0.0000000	      0.0000000
     -0.0117134	     -0.0154654	      0.0000000
     -0.0135789	     -0.0223746	      0.0000000
     -0.0045178	     -0.0259344	      0.0000000
      0.0048843	     -0.0274225	      0.0000000
      0.0161425	     -0.0275264	      0.0000000
      0.0266707	     -0.0267218	      0.0000000
      0.0360244	     -0.0253159	      0.0000000
      0.0434441	     -0.0235764	      0.0000000
      0.0487080	     -0.0217081	      0.0000000
      0.0517273	     -0.0198683	      0.0000000
      0.0526142	     -0.0181603	      0.0000000
      0.0515681	     -0.0166392	      0.0000000
      0.0488387	     -0.0153178	      0.0000000
      0.0446724	     -0.0141778	      0.0000000
      0.0392825	     -0.0131813	      0.0000000
      0.0328326	     -0.0122829	      0.0000000
      0.0254340	     -0.0114385	      0.0000000
      0.0171477	     -0.0106099	      0.0000000
      0.0079928	     -0.0097696	      0.0000000
     -0.0020356	     -0.0089011	      0.0000000
     -0.0129572	     -0.0079992	      0.0000000
     -0.0247933	     -0.0070649	      0.0000000
     -0.0375683	     -0.0061002	      0.0000000
     -0.0512974	     -0.0051108	      0.0000000
     -0.0659821	     -0.0041088	      0.0000000
     -0.0816106	     -0.0031055	      0.0000000
     -0.0981589	     -0.0021124	      0.0000000
     -0.1155887	     -0.0011405	      0.0000000
     -0.1338520	     -0.0002006	      0.0000000
     -0.1528833	      0.0006923	      0.0000000
     -0.1726044	      0.0015240	      0.0000000
     -0.1929279	      0.0022836	      0.0000000
     -0.2137557	      0.0029604	      0.0000000
     -0.2349805	      0.0035438	      0.0000000
     -0.2564865	      0.0040235	      0.0000000
     -0.2781498	      0.0043896	      0.0000000
     -0.2998395	      0.0046328	      0.0000000
     -0.3214182	      0.0047442	      0.0000000
     -0.3427433	      0.0047159	      0.0000000
     -0.3636675	      0.0045405	      0.0000000
     -0.3840396	      0.0042117	      0.0000000
     -0.4037057	      0.0037240	      0.0000000
     -0.4225097	      0.0030727	      0.0000000
     -0.4402941	      0.0022543	      0.0000000
     -0.4569006	      0.0012666	      0.0000000
     -0.4721734	      0.0001087	      0.0000000
     -0.4859547	     -0.0012142	      0.0000000
     -0.4980938	     -0.0026954	      0.0000000
     -0.5084531	     -0.0043354	      0.0000000
     -0.5168852	     -0.0061570	      0.0000000
     -0.5232195	     -0.0081789	      0.0000000
     -0.5272752	     -0.0103888	      0.0000000
     -0.5288965	     -0.0127657	      0.0000000
     -0.5279503	     -0.0152881	      0.0000000
     -0.5243241	     -0.0179337	      0.0000000
     -0.5179266	     -0.0206792	      0.0000000
     -0.5086886	     -0.0234991	      0.0000000
     -0.4965652	     -0.0263652	      0.0000000
     -0.4815380	     -0.0292460	      0.0000000
     -0.4636183	     -0.0321068	      0.0000000
     -0.4428503	     -0.0349097	      0.0000000
     -0.4193138	     -0.0376135	      0.0000000
     -0.3931281	     -0.0401745	      0.0000000
     -0.3644540	     -0.0425469	      0.0000000
     -0.3334963	     -0.0446834	      0.0000000
     -0.3005056	     -0.0465368	      0.0000000
     -0.2657788	     -0.0480603	      0.0000000
     -0.2296588	     -0.0492100	      0.0000000
     -0.1925327	     -0.0499457	      0.0000000
     -0.1548284	     -0.0502330	      0.0000000
     -0.1170100	     -0.0500454	      0.0000000
     -0.0795700	     -0.0493658	      0.0000000
     -0.0430206	     -0.0481897	      0.0000000
     -0.0078796	     -0.0465260	      0.0000000
      0.0253378	     -0.0444052	      0.0000000
      0.0561497	     -0.0418716	      0.0000000
      0.0841165	     -0.0389692	      0.0000000
      0.1088466	     -0.0357665	      0.0000000
      0.1300189	     -0.0323425	      0.0000000
      0.1473986	     -0.0287865	      0.0000000
      0.1608458	     -0.0251924	      0.0000000
      0.1703220	     -0.0216545	      0.0000000
      0.1758930	     -0.0182644	      0.0000000
      0.1777259	     -0.0151051	      0.0000000
      0.1760823	     -0.0122488	      0.0000000
      0.1713052	     -0.0097516	      0.0000000
      0.1638054	     -0.0076512	      0.0000000
      0.1540370	     -0.0059555	      0.0000000
      0.1424506	     -0.0046419	      0.0000000
      0.1294680	     -0.0036790	      0.0000000
      0.1154954	     -0.0030413	      0.0000000
      0.1009220	     -0.0027099	      0.0000000
      0.0861168	     -0.0026695	      0.0000000
      0.0714406	     -0.0029184	      0.0000000
      0.0572504	     -0.0034702	      0.0000000
      0.0439431	     -0.0043563	      0.0000000
      0.0319124	     -0.0055710	      0.0000000
      0.0215926	     -0.0070332	      0.0000000
      0.0132473	     -0.0081484	      0.0000000
      0.0062639	     -0.0078170	      0.0000000
      0.0000000	      0.0000000	      0.0000000
      0.0000000	      0.0000000	      0.0000000
     -0.0127292	     -0.0264914	      0.0000000
     -0.0134452	     -0.0409244	      0.0000000
     -0.0018085	     -0.0492242	      0.0000000
      0.0115057	     -0.0530206	      0.0000000
      0.0274411	     -0.0535242	      0.0000000
      0.0426029	     -0.0516909	      0.0000000
      0.0560366	     -0.0482671	      0.0000000
      0.0665414	     -0.0439109	      0.0000000
      0.0736367	     -0.0391510	      0.0000000
      0.0770855	     -0.0343960	      0.0000000
      0.0769559	     -0.0299227	      0.0000000
      0.0734722	     -0.0258858	      0.0000000
      0.0669540	     -0.0223340	      0.0000000
      0.0577386	     -0.0192348	      0.0000000
      0.0461332	     -0.0165049	      0.0000000
      0.0323874	     -0.0140425	      0.0000000
      0.0166826	     -0.0117437	      0.0000000
     -0.0008634	     -0.0095119	      0.0000000
     -0.0201906	     -0.0072801	      0.0000000
     -0.0412636	     -0.0050097	      0.0000000
     -0.0640759	     -0.0026816	      0.0000000
     -0.0886265	     -0.0002919	      0.0000000
     -0.1149181	      0.0021531	      0.0000000
     -0.1429162	      0.0046233	      0.0000000
     -0.1725796	      0.0070907	      0.0000000
     -0.2038418	      0.0095262	      0.0000000
     -0.2366155	      0.0118997	      0.0000000
     -0.2707898	      0.0141811	      0.0000000
     -0.3062315	      0.0163386	      0.0000000
     -0.3427870	      0.0183392	      0.0000000
     -0.3802849	      0.0201536	      0.0000000
     -0.4185364	      0.0217552	      0.0000000
     -0.4573367	      0.0231183	      0.0000000
     -0.4964673	      0.0242187	      0.0000000
     -0.5356980	      0.0250334	      0.0000000
     -0.5747886	      0.0255411	      0.0000000
     -0.6134912	      0.0257225	      0.0000000
     -0.6515517	      0.0255599	      0.0000000
     -0.6887118	      0.0250380	      0.0000000
     -0.7247107	      0.0241436	      0.0000000
     -0.7592866	      0.0228658	      0.0000000
     -0.7921784	      0.0211959	      0.0000000
     -0.8231269	      0.0191276	      0.0000000
     -0.8518766	      0.0166570	      0.0000000
     -0.8781764	      0.0137828	      0.0000000
     -0.9017816	      0.0105067	      0.0000000
     -0.9224533	      0.0068356	      0.0000000
     -0.9399564	      0.0027804	      0.0000000
     -0.9540626	     -0.0016511	      0.0000000
     -0.9645299	     -0.0064804	      0.0000000
     -0.9711688	     -0.0117410	      0.0000000
     -0.9737623	     -0.0174110	      0.0000000
     -0.9721364	     -0.0234353	      0.0000000
     -0.9661498	     -0.0297619	      0.0000000
     -0.9556920	     -0.0363377	      0.0000000
     -0.9406846	     -0.0431071	      0.0000000
     -0.9210828	     -0.0500101	      0.0000000
     -0.8968775	     -0.0569812	      0.0000000
     -0.8680985	     -0.0639481	      0.0000000
     -0.8348169	     -0.0708319	      0.0000000
     -0.7971489	     -0.0775467	      0.0000000
     -0.7552591	     -0.0840006	      0.0000000
     -0.7093632	     -0.0900955	      0.0000000
     -0.6597316	     -0.0957293	      0.0000000
     -0.6066912	     -0.1007968	      0.0000000
     -0.5506278	     -0.1051918	      0.0000000
     -0.4919864	     -0.1088097	      0.0000000
     -0.4312716	     -0.1115506	      0.0000000
     -0.3690459	     -0.1133220	      0.0000000
     -0.3059262	     -0.1140429	      0.0000000
     -0.2425795	     -0.1136479	      0.0000000
     -0.1797151	     -0.1120914	      0.0000000
     -0.1180751	     -0.1093526	      0.0000000
     -0.0584245	     -0.1054400	      0.0000000
     -0.0015228	     -0.1004006	      0.0000000
      0.0518462	     -0.0943223	      0.0000000
      0.1009989	     -0.0873265	      0.0000000
      0.1452914	     -0.0795435	      0.0000000
      0.1841686	     -0.0711554	      0.0000000
      0.2171814	     -0.0623648	      0.0000000
      0.2440064	     -0.0533907	      0.0000000
      0.2644596	     -0.0444600	      0.0000000
      0.2785089	     -0.0357984	      0.0000000
      0.2862775	     -0.0276188	      0.0000000
      0.2880424	     -0.0201124	      0.0000000
      0.2842223	     -0.0134382	      0.0000000
      0.2753673	     -0.0077174	      0.0000000
      0.2621292	     -0.0029928	      0.0000000
      0.2452036	      0.0007719	      0.0000000
      0.2252864	      0.0036186	      0.0000000
      0.2031026	      0.0055807	      0.0000000
      0.1793456	      0.0067030	      0.0000000
      0.1546885	      0.0070234	      0.0000000
      0.1297889	      0.0065558	      0.0000000
      0.1052820	      0.0052841	      0.0000000
      0.0818364	      0.0031585	      0.0000000
      0.0600501	      0.0001967	      0.0000000
      0.0406643	     -0.0034747	      0.0000000
      0.0239242	     -0.0069029	      0.0000000
      0.0107220	     -0.0086429	      0.0000000
      0.0000000	      0.0000000	      0.0000000
      0.0000000	      0.0000000	      0.0000000
     -0.0120265	     -0.0343925	      0.0000000
     -0.0115794	     -0.0577105	      0.0000000
      0.0012990	     -0.0721865	      0.0000000
      0.0161497	     -0.0792248	      0.0000000
      0.0336254	     -0.0804183	      0.0000000
      0.0500626	     -0.0772299	      0.0000000
      0.0642517	     -0.0709882	      0.0000000
      0.0747785	     -0.0628708	      0.0000000
      0.0810078	     -0.0538599	      0.0000000
      0.0825975	     -0.0447203	      0.0000000
      0.0795558	     -0.0359842	      0.0000000
      0.0720819	     -0.0279642	      0.0000000
      0.0604965	     -0.0207807	      0.0000000
      0.0451544	     -0.0144040	      0.0000000
      0.0263862	     -0.0087095	      0.0000000
      0.0044815	     -0.0035212	      0.0000000
     -0.0203483	      0.0013337	      0.0000000
     -0.0479276	      0.0060083	      0.0000000
     -0.0781205	      0.0106108	      0.0000000
     -0.1108431	      0.0152140	      0.0000000
     -0.1460297	      0.0198548	      0.0000000
     -0.1836182	      0.0245358	      0.0000000
     -0.2235338	      0.0292279	      0.0000000
     -0.2656812	      0.0338842	      0.0000000
     -0.3099426	      0.0384534	      0.0000000
     -0.3561700	      0.0428784	      0.0000000
     -0.4041864	      0.0471009	      0.0000000
     -0.4537860	      0.0510626	      0.0000000
     -0.5047368	      0.0547060	      0.0000000
     -0.5567833	      0.0579750	      0.0000000
     -0.6096501	      0.0608178	      0.0000000
     -0.6630432	      0.0631868	      0.0000000
     -0.7166534	      0.0650386	      0.0000000
     -0.7701595	      0.0663335	      0.0000000
     -0.8232312	      0.0670357	      0.0000000
     -0.8755325	      0.0671139	      0.0000000
     -0.9267244	      0.0665409	      0.0000000
     -0.9764676	      0.0652939	      0.0000000
     -1.0244251	      0.0633546	      0.0000000
     -1.0702643	      0.0607091	      0.0000000
     -1.1136591	      0.0573475	      0.0000000
     -1.1542917	      0.0532647	      0.0000000
     -1.1918540	      0.0484592	      0.0000000
     -1.2260490	      0.0429338	      0.0000000
     -1.2565920	      0.0366954	      0.0000000
     -1.2832114	      0.0297544	      0.0000000
     -1.3056482	      0.0221247	      0.0000000
     -1.3236523	      0.0138216	      0.0000000
     -1.3369986	      0.0048589	      0.0000000
     -1.3454415	     -0.0047720	      0.0000000
     -1.3487616	     -0.0150745	      0.0000000
     -1.3468457	     -0.0259866	      0.0000000
     -1.3395669	     -0.0374165	      0.0000000
     -1.3268453	     -0.0492761	      0.0000000
     -1.3086261	     -0.0614741	      0.0000000
     -1.2848876	     -0.0739153	      0.0000000
     -1.2556417	     -0.0864973	      0.0000000
     -1.2209360	     -0.0991092	      0.0000000
     -1.1808564	     -0.1116306	      0.0000000
     -1.1355296	     -0.1239311	      0.0000000
     -1.0851264	     -0.1358700	      0.0000000
     -1.0298641	     -0.1472972	      0.0000000
     -0.9700099	     -0.1580539	      0.0000000
     -0.9058836	     -0.1679745	      0.0000000
     -0.8378605	     -0.1768882	      0.0000000
     -0.7663733	     -0.1846225	      0.0000000
     -0.6919139	     -0.1910064	      0.0000000
     -0.6150343	     -0.1958745	      0.0000000
     -0.5363463	     -0.1990718	      0.0000000
     -0.4565196	     -0.2004594	      0.0000000
     -0.3762792	     -0.1999202	      0.0000000
     -0.2963999	     -0.1973661	      0.0000000
     -0.2176994	     -0.1927443	      0.0000000
     -0.1410286	     -0.1860464	      0.0000000
     -0.0672627	     -0.1773139	      0.0000000
      0.0027322	     -0.1666621	      0.0000000
      0.0680396	     -0.1542662	      0.0000000
      0.1278957	     -0.1403719	      0.0000000
      0.1815590	     -0.1252445	      0.0000000
      0.2284042	     -0.1092189	      0.0000000
      0.2679233	     -0.0926628	      0.0000000
      0.2997508	     -0.0759688	      0.0000000
      0.3236847	     -0.0595412	      0.0000000
      0.3396994	     -0.0437747	      0.0000000
      0.3479531	     -0.0290394	      0.0000000
      0.3487802	     -0.0156610	      0.0000000
      0.3427054	     -0.0039090	      0.0000000
      0.3303724	      0.0060578	      0.0000000
      0.3126173	      0.0142192	      0.0000000
      0.2903219	      0.0205915	      0.0000000
      0.2643793	      0.0252096	      0.0000000
      0.2356966	      0.0281387	      0.0000000
      0.2051682	      0.0294401	      0.0000000
      0.1736815	      0.0291480	      0.0000000
      0.1420930	      0.0272600	      0.0000000
      0.1113005	      0.0237353	      0.0000000
      0.0820849	      0.0186112	      0.0000000
      0.0555410	      0.0120514	      0.0000000
      0.0320019	      0.0050576	      0.0000000
      0.0139383	     -0.0010268	      0.0000000
      0.0000000	      0.0000000	      0.0000000
      0.0000000	      0.0000000	      0.0000000
     -0.0111089	     -0.0452767	      0.0000000
     -0.0098311	     -0.0770335	      0.0000000
      0.0032842	     -0.0971303	      0.0000000
      0.0178583	     -0.1069590	      0.0000000
      0.0345271	     -0.1084011	      0.0000000
      0.0496200	     -0.1033900	      0.0000000
      0.0618876	     -0.0937967	      0.0000000
      0.0698677	     -0.0813143	      0.0000000
      0.0728766	     -0.0673784	      0.0000000
      0.0705246	     -0.0531184	      0.0000000
      0.0627760	     -0.0393321	      0.0000000
      0.0497885	     -0.0265010	      0.0000000
      0.0318453	     -0.0148262	      0.0000000
      0.0092741	     -0.0042844	      0.0000000
     -0.0176276	      0.0052813	      0.0000000
     -0.0485247	      0.0140743	      0.0000000
     -0.0831271	      0.0223126	      0.0000000
     -0.1212119	      0.0301921	      0.0000000
     -0.1625985	      0.0378691	      0.0000000
     -0.2071377	      0.0454466	      0.0000000
     -0.2546882	      0.0529689	      0.0000000
     -0.3051015	      0.0604302	      0.0000000
     -0.3582106	      0.0677850	      0.0000000
     -0.4138242	      0.0749612	      0.0000000
     -0.4717218	      0.0818755	      0.0000000
     -0.5316507	      0.0884383	      0.0000000
     -0.5933277	      0.0945592	      0.0000000
     -0.6564407	      0.1001499	      0.0000000
     -0.7206525	      0.1051257	      0.0000000
     -0.7856049	      0.1094072	      0.0000000
     -0.8509230	      0.1129223	      0.0000000
     -0.9162190	      0.1156062	      0.0000000
     -0.9810958	      0.1174019	      0.0000000
     -1.0451517	      0.1182598	      0.0000000
     -1.1079844	      0.1181378	      0.0000000
     -1.1691947	      0.1170017	      0.0000000
     -1.2283897	      0.1148245	      0.0000000
     -1.2851864	      0.1115869	      0.0000000
     -1.3392136	      0.1072763	      0.0000000
     -1.3901150	      0.1018872	      0.0000000
     -1.4375501	      0.0954204	      0.0000000
     -1.4811964	      0.0878827	      0.0000000
     -1.5207499	      0.0792867	      0.0000000
     -1.5559263	      0.0696501	      0.0000000
     -1.5864610	      0.0589953	      0.0000000
     -1.6121096	      0.0473491	      0.0000000
     -1.6326468	      0.0347410	      0.0000000
     -1.6478644	      0.0212026	      0.0000000
     -1.6575931	      0.0067627	      0.0000000
     -1.6616317	     -0.0085729	      0.0000000
     -1.6598487	     -0.0247432	      0.0000000
     -1.6522237	     -0.0416243	      0.0000000
     -1.6387080	     -0.0591031	      0.0000000
     -1.6192928	     -0.0770618	      0.0000000
     -1.5939867	     -0.0953786	      0.0000000
     -1.5628237	     -0.1139242	      0.0000000
     -1.5258638	     -0.1325599	      0.0000000
     -1.4831958	     -0.1511361	      0.0000000
     -1.4349394	     -0.1694906	      0.0000000
     -1.3812476	     -0.1874487	      0.0000000
     -1.3223101	     -0.2048223	      0.0000000
     -1.2583559	     -0.2214109	      0.0000000
     -1.1896569	     -0.2370024	      0.0000000
     -1.1165311	     -0.2513748	      0.0000000
     -1.0393458	     -0.2642992	      0.0000000
     -0.9585210	     -0.2755426	      0.0000000
     -0.8745316	     -0.2848726	      0.0000000
     -0.7879097	     -0.2920621	      0.0000000
     -0.6992460	     -0.2968955	      0.0000000
     -0.6091892	     -0.2991758	      0.0000000
     -0.5184457	     -0.2987319	      0.0000000
     -0.4277762	     -0.2954273	      0.0000000
     -0.3379909	     -0.2891695	      0.0000000
     -0.2499434	     -0.2799194	      0.0000000
     -0.1645201	     -0.2677030	      0.0000000
     -0.0826345	     -0.2526205	      0.0000000
     -0.0051917	     -0.2348815	      0.0000000
      0.0668352	     -0.2147703	      0.0000000
      0.1326366	     -0.1926839	      0.0000000
      0.1914304	     -0.1690515	      0.0000000
      0.2425555	     -0.1443668	      0.0000000
      0.2854720	     -0.1191792	      0.0000000
      0.3197937	     -0.0940677	      0.0000000
      0.3453081	     -0.0696143	      0.0000000
      0.3619915	     -0.0463823	      0.0000000
      0.3700101	     -0.0248916	      0.0000000
      0.3697548	     -0.0055927	      0.0000000
      0.3617505	      0.0111582	      0.0000000
      0.3468383	      0.0251957	      0.0000000
      0.3259455	      0.0364849	      0.0000000
      0.3000435	      0.0450319	      0.0000000
      0.2701593	      0.0508912	      0.0000000
      0.2373309	      0.0541290	      0.0000000
      0.2026104	      0.0547913	      0.0000000
      0.1670259	      0.0528848	      0.0000000
      0.1316706	      0.0483689	      0.0000000
      0.0975061	      0.0412532	      0.0000000
      0.0659776	      0.0316421	      0.0000000
      0.0376094	      0.0202963	      0.0000000
      0.0161243	      0.0082482	      0.0000000
      0.0000000	      0.0000000	      0.0000000
      0.0000000	      0.0000000	      0.0000000
     -0.0106495	     -0.0562239	      0.0000000
     -0.0092749	     -0.0958690	      0.0000000
      0.0030462	     -0.1209158	      0.0000000
      0.0159272	     -0.1328344	      0.0000000
      0.0300392	     -0.1338491	      0.0000000
      0.0418156	     -0.1263623	      0.0000000
      0.0500906	     -0.1127751	      0.0000000
      0.0534681	     -0.0952827	      0.0000000
      0.0513037	     -0.0757640	      0.0000000
      0.0432189	     -0.0557038	      0.0000000
      0.0291627	     -0.0361525	      0.0000000
      0.0092669	     -0.0177485	      0.0000000
     -0.0162411	     -0.0007796	      0.0000000
     -0.0470962	      0.0147625	      0.0000000
     -0.0828864	      0.0289806	      0.0000000
     -0.1232785	      0.0420998	      0.0000000
     -0.1679662	      0.0543935	      0.0000000
     -0.2166882	      0.0661122	      0.0000000
     -0.2692079	      0.0774425	      0.0000000
     -0.3252981	      0.0884970	      0.0000000
     -0.3847247	      0.0993142	      0.0000000
     -0.4472355	      0.1098702	      0.0000000
     -0.5125532	      0.1200938	      0.0000000
     -0.5803721	      0.1298839	      0.0000000
     -0.6503568	      0.1391246	      0.0000000
     -0.7221419	      0.1476943	      0.0000000
     -0.7953350	      0.1554727	      0.0000000
     -0.8695207	      0.1623444	      0.0000000
     -0.9442651	      0.1682027	      0.0000000
     -1.0191217	      0.1729503	      0.0000000
     -1.0936359	      0.1765018	      0.0000000
     -1.1673507	      0.1787837	      0.0000000
     -1.2398111	      0.1797345	      0.0000000
     -1.3105690	      0.1793048	      0.0000000
     -1.3791880	      0.1774572	      0.0000000
     -1.4452466	      0.1741653	      0.0000000
     -1.5083419	      0.1694139	      0.0000000
     -1.5680922	      0.1631980	      0.0000000
     -1.6241391	      0.1555221	      0.0000000
     -1.6761492	      0.1463993	      0.0000000
     -1.7238148	      0.1358510	      0.0000000
     -1.7668548	      0.1239054	      0.0000000
     -1.8050144	      0.1105973	      0.0000000
     -1.8380651	      0.0959669	      0.0000000
     -1.8658042	      0.0800594	      0.0000000
     -1.8880542	      0.0629236	      0.0000000
     -1.9046605	      0.0446112	      0.0000000
     -1.9154914	      0.0251764	      0.0000000
     -1.9204648	      0.0046698	      0.0000000
     -1.9194296	     -0.0168712	      0.0000000
     -1.9124150	     -0.0393135	      0.0000000
     -1.8994415	     -0.0624904	      0.0000000
     -1.8805293	     -0.0862755	      0.0000000
     -1.8557177	     -0.1105319	      0.0000000
     -1.8250560	     -0.1351164	      0.0000000
     -1.7886086	     -0.1598751	      0.0000000
     -1.7464563	     -0.1846424	      0.0000000
     -1.6986992	     -0.2092386	      0.0000000
     -1.6454589	     -0.2334690	      0.0000000
     -1.5868820	     -0.2571228	      0.0000000
     -1.5231430	     -0.2799728	      0.0000000
     -1.4544482	     -0.3017756	      0.0000000
     -1.3810396	     -0.3222727	      0.0000000
     -1.3031989	     -0.3411923	      0.0000000
     -1.2212515	     -0.3582520	      0.0000000
     -1.1355710	     -0.3731628	      0.0000000
     -1.0465824	     -0.3856337	      0.0000000
     -0.9547655	     -0.3953775	      0.0000000
     -0.8606574	     -0.4021182	      0.0000000
     -0.7648543	     -0.4055989	      0.0000000
     -0.6680113	     -0.4055910	      0.0000000
     -0.5708416	     -0.4019047	      0.0000000
     -0.4741133	     -0.3943996	      0.0000000
     -0.3786451	     -0.3829973	      0.0000000
     -0.2852988	     -0.3676935	      0.0000000
     -0.1949700	     -0.3485727	      0.0000000
     -0.1085825	     -0.3258190	      0.0000000
     -0.0270616	     -0.2997564	      0.0000000
      0.0486153	     -0.2708070	      0.0000000
      0.1175757	     -0.2395284	      0.0000000
      0.1790320	     -0.2065360	      0.0000000
      0.2322952	     -0.1724981	      0.0000000
      0.2768150	     -0.1381614	      0.0000000
      0.3121981	     -0.1042889	      0.0000000
      0.3382296	     -0.0716391	      0.0000000
      0.3548856	     -0.0409397	      0.0000000
      0.3623714	     -0.0128457	      0.0000000
      0.3610597	      0.0120377	      0.0000000
      0.3516294	      0.0333257	      0.0000000
      0.3349943	      0.0508840	      0.0000000
      0.3121136	      0.0646481	      0.0000000
      0.2840549	      0.0746277	      0.0000000
      0.2519286	      0.0808663	      0.0000000
      0.2168913	      0.0834002	      0.0000000
      0.1800977	      0.0822256	      0.0000000
      0.1428042	      0.0772781	      0.0000000
      0.1061446	      0.0684885	      0.0000000
      0.0718733	      0.0558129	      0.0000000
      0.0407230	      0.0395878	      0.0000000
      0.0173002	      0.0203011	      0.0000000
      0.0000000	      0.0000000	      0.0000000
      0.0000000	      0.0000000	      0.0000000
     -0.0107559	     -0.0674741	      0.0000000
     -0.0100625	     -0.1141958	      0.0000000
      0.0003947	     -0.1431465	      0.0000000
      0.0102783	     -0.1560992	      0.0000000
      0.0203264	     -0.1557517	      0.0000000
      0.0271420	     -0.1449982	      0.0000000
      0.0297214	     -0.1267597	      0.0000000