# vtk DataFile Version 2.0
vw
ASCII
DATASET STRUCTURED_POINTS
DIMENSIONS  102  102    1
ORIGIN      0.0000000      0.0000000      0.0000000
SPACING      0.0100000      0.0100000      0.0100000
POINT_DATA  10404
VECTORS velocity float
      0.0000000	      0.0000000	      0.0000000
      0.0000000	      0.0000000	      0.0000000
      0.0000000	      0.0000000	      0.0000000
      0.0000000	      0.0000000	      0.0000000
      0.0000000	      0.0000000	      0.0000000
      0.0000000	      0.0000000	      0.0000000
      0.0000000	      0.0000000	      0.0000000
      0.0000000	      0.0000000	      0.0000000
      0.0000000	      0.0000000	      0.0000000
      0.0000000	      0.0000000	      0.0000000
      0.0000000	      0.0000000	      0.0000000
      0.0000000	      0.0000000	      0.0000000
      0.0000000	      0.0000000	      0.0000000
      0.0000000	      0.0000000	      0.0000000
      0.0000000	      0.0000000	      0.0000000
      0.0000000	      0.0000000	      0.0000000
      0.0000000	      0.0000000	      0.0000000
      0.0000000	      0.0000000	      0.0000000
      0.0000000	      0.0000000	      0.0000000
      0.0000000	      0.0000000	      0.0000000
      0.0000000	      0.0000000	      0.0000000
      0.0000000	      0.0000000	      0.0000000
      0.0000000	      0.0000000	      0.0000000
      0.0000000	      0.0000000	      0.0000000
      0.0000000	      0.0000000	      0.0000000
      0.0000000	      0.0000000	      0.0000000
      0.0000000	      0.0000000	      0.0000000
      0.0000000	      0.0000000	      0.0000000
      0.0000000	      0.0000000	      0.0000000
      0.0000000	      0.0000000	      0.0000000
      0.0000000	      0.0000000	      0.0000000
      0.0000000	      0.0000000	      0.0000000
      0.0000000	      0.0000000	      0.0000000
      0.0000000	      0.0000000	      0.0000000
      0.0000000	      0.0000000	      0.0000000
      0.0000000	      0.0000000	      0.0000000
      0.0000000	      0.0000000	      0.0000000
      0.0000000	      0.0000000	      0.0000000
      0.0000000	      0.0000000	      0.0000000
      0.0000000	      0.0000000	      0.0000000
      0.0000000	      0.0000000	      0.0000000
      0.0000000	      0.0000000	      0.0000000
      0.0000000	      0.0000000	      0.0000000
      0.0000000	      0.0000000	      0.0000000
      0.0000000	      0.0000000	      0.0000000
      0.0000000	      0.0000000	      0.0000000
      0.0000000	      0.0000000	      0.0000000
      0.0000000	      0.0000000	      0.0000000
      0.0000000	      0.0000000	      0.0000000
      0.0000000	      0.0000000	      0.0000000
      0.0000000	      0.0000000	      0.0000000
      0.0000000	      0.0000000	      0.0000000
      0.0000000	      0.0000000	      0.0000000
      0.0000000	      0.0000000	      0.0000000
      0.0000000	      0.0000000	      0.0000000
      0.0000000	      0.0000000	      0.0000000
      0.0000000	      0.0000000	      0.0000000
      0.0000000	      0.0000000	      0.0000000
      0.0000000	      0.0000000	      0.0000000
      0.0000000	      0.0000000	      0.0000000
      0.0000000	      0.0000000	      0.0000000
      0.0000000	      0.0000000	      0.0000000
      0.0000000	      0.0000000	      0.0000000
      0.0000000	      0.0000000	      0.0000000
      0.0000000	      0.0000000	      0.0000000
      0.0000000	      0.0000000	      0.0000000
      0.0000000	      0.0000000	      0.0000000
      0.0000000	      0.0000000	      0.0000000
      0.0000000	      0.0000000	      0.0000000
      0.0000000	      0.0000000	      0.0000000
      0.0000000	      0.0000000	      0.0000000
      0.0000000	      0.0000000	      0.0000000
      0.0000000	      0.0000000	      0.0000000
      0.0000000	      0.0000000	      0.0000000
      0.0000000	      0.0000000	      0.0000000
      0.0000000	      0.0000000	      0.0000000
      0.0000000	      0.0000000	      0.0000000
      0.0000000	      0.0000000	      0.0000000
      0.0000000	      0.0000000	      0.0000000
      0.0000000	      0.0000000	      0.0000000
      0.0000000	      0.0000000	      0.0000000
      0.0000000	      0.0000000	      0.0000000
      0.0000000	      0.0000000	      0.0000000
      0.0000000	      0.0000000	      0.0000000
      0.0000000	      0.0000000	      0.0000000
      0.0000000	      0.0000000	      0.0000000
      0.0000000	      0.0000000	      0.0000000
      0.0000000	      0.0000000	      0.0000000
      0.0000000	      0.0000000	      0.0000000
      0.0000000	      0.0000000	      0.0000000
      0.0000000	      0.0000000	      0.0000000
      0.0000000	      0.0000000	      0.0000000
      0.0000000	      0.0000000	      0.0000000
      0.0000000	      0.0000000	      0.0000000
      0.0000000	      0.0000000	      0.0000000
      0.0000000	      0.0000000	      0.0000000
      0.0000000	      0.0000000	      0.0000000
      0.0000000	      0.0000000	      0.0000000
      0.0000000	      0.0000000	      0.0000000
      0.0000000	      0.0000000	      0.0000000
      0.0000000	      0.0000000	      0.0000000
      0.0000000	      0.0000000	      0.0000000
      0.0000000	      0.0000000	      0.0000000
     -0.0117214	     -0.0154777	      0.0000000
     -0.0135859	     -0.0223938	      0.0000000
     -0.0045134	     -0.0259577	      0.0000000
      0.0049017	     -0.0274477	      0.0000000
      0.0161746	     -0.0275515	      0.0000000
      0.0267165	     -0.0267457	      0.0000000
      0.0360818	     -0.0253376	      0.0000000
      0.0435102	     -0.0235955	      0.0000000
      0.0487796	     -0.0217245	      0.0000000
      0.0518014	     -0.0198823	      0.0000000
      0.0526881	     -0.0181723	      0.0000000
      0.0516397	     -0.0166496	      0.0000000
      0.0489064	     -0.0153272	      0.0000000
      0.0447352	     -0.0141864	      0.0000000
      0.0393398	     -0.0131895	      0.0000000
      0.0328839	     -0.0122907	      0.0000000
      0.0254791	     -0.0114460	      0.0000000
      0.0171862	     -0.0106170	      0.0000000
      0.0080244	     -0.0097763	      0.0000000
     -0.0020113	     -0.0089072	      0.0000000
     -0.0129407	     -0.0080046	      0.0000000
     -0.0247853	     -0.0070696	      0.0000000
     -0.0375694	     -0.0061040	      0.0000000
     -0.0513084	     -0.0051138	      0.0000000
     -0.0660037	     -0.0041109	      0.0000000
     -0.0816435	     -0.0031067	      0.0000000
     -0.0982038	     -0.0021128	      0.0000000
     -0.1156462	     -0.0011401	      0.0000000
     -0.1339226	     -0.0001994	      0.0000000
     -0.1529677	      0.0006943	      0.0000000
     -0.1727031	      0.0015267	      0.0000000
     -0.1930411	      0.0022870	      0.0000000
     -0.2138838	      0.0029644	      0.0000000
     -0.2351237	      0.0035483	      0.0000000
     -0.2566450	      0.0040285	      0.0000000
     -0.2783236	      0.0043950	      0.0000000
     -0.3000286	      0.0046384	      0.0000000
     -0.3216226	      0.0047500	      0.0000000
     -0.3429627	      0.0047218	      0.0000000
     -0.3639017	      0.0045465	      0.0000000
     -0.3842883	      0.0042176	      0.0000000
     -0.4039685	      0.0037297	      0.0000000
     -0.4227861	      0.0030782	      0.0000000
     -0.4405836	      0.0022594	      0.0000000
     -0.4572026	      0.0012712	      0.0000000
     -0.4724871	      0.0001128	      0.0000000
     -0.4862794	     -0.0012109	      0.0000000
     -0.4984288	     -0.0026929	      0.0000000
     -0.5087973	     -0.0043337	      0.0000000
     -0.5172377	     -0.0061563	      0.0000000
     -0.5235794	     -0.0081793	      0.0000000
     -0.5276412	     -0.0103905	      0.0000000
     -0.5292674	     -0.0127688	      0.0000000
     -0.5283247	     -0.0152928	      0.0000000
     -0.5247005	     -0.0179401	      0.0000000
     -0.5183033	     -0.0206875	      0.0000000
     -0.5090639	     -0.0235095	      0.0000000
     -0.4969373	     -0.0263777	      0.0000000
     -0.4819049	     -0.0292607	      0.0000000
     -0.4639780	     -0.0321239	      0.0000000
     -0.4432006	     -0.0349292	      0.0000000
     -0.4196526	     -0.0376355	      0.0000000
     -0.3934530	     -0.0401991	      0.0000000
     -0.3647627	     -0.0425739	      0.0000000
     -0.3337865	     -0.0447130	      0.0000000
     -0.3007751	     -0.0465687	      0.0000000
     -0.2660253	     -0.0480945	      0.0000000
     -0.2298802	     -0.0492463	      0.0000000
     -0.1927271	     -0.0499837	      0.0000000
     -0.1549942	     -0.0502725	      0.0000000
     -0.1171457	     -0.0500859	      0.0000000
     -0.0796745	     -0.0494069	      0.0000000
     -0.0430935	     -0.0482310	      0.0000000
     -0.0079207	     -0.0465668	      0.0000000
      0.0253279	     -0.0444450	      0.0000000
      0.0561701	     -0.0419098	      0.0000000
      0.0841656	     -0.0390053	      0.0000000
      0.1089220	     -0.0357999	      0.0000000
      0.1301179	     -0.0323728	      0.0000000
      0.1475179	     -0.0288134	      0.0000000
      0.1609818	     -0.0252156	      0.0000000
      0.1704708	     -0.0216739	      0.0000000
      0.1760505	     -0.0182800	      0.0000000
      0.1778878	     -0.0151171	      0.0000000
      0.1762448	     -0.0122575	      0.0000000
      0.1714646	     -0.0097573	      0.0000000
      0.1639585	     -0.0076544	      0.0000000
      0.1541812	     -0.0059569	      0.0000000
      0.1425837	     -0.0046418	      0.0000000
      0.1295885	     -0.0036779	      0.0000000
      0.1156022	     -0.0030397	      0.0000000
      0.1010146	     -0.0027081	      0.0000000
      0.0861950	     -0.0026679	      0.0000000
      0.0715048	     -0.0029171	      0.0000000
      0.0573011	     -0.0034696	      0.0000000
      0.0439813	     -0.0043566	      0.0000000
      0.0319393	     -0.0055726	      0.0000000
      0.0216100	     -0.0070363	      0.0000000
      0.0132572	     -0.0081530	      0.0000000
      0.0062683	     -0.0078221	      0.0000000
      0.0000000	      0.0000000	      0.0000000
      0.0000000	      0.0000000	      0.0000000
     -0.0127363	     -0.0265139	      0.0000000
     -0.0134480	     -0.0409621	      0.0000000
     -0.0017945	     -0.0492715	      0.0000000
      0.0115391	     -0.0530724	      0.0000000
      0.0274964	     -0.0535762	      0.0000000
      0.0426786	     -0.0517397	      0.0000000
      0.0561295	     -0.0483105	      0.0000000
      0.0666473	     -0.0439479	      0.0000000
      0.0737507	     -0.0391813	      0.0000000
      0.0772029	     -0.0344202	      0.0000000
      0.0770722	     -0.0299416	      0.0000000
      0.0735838	     -0.0259007	      0.0000000
      0.0670581	     -0.0223459	      0.0000000
      0.0578331	     -0.0192446	      0.0000000
      0.0462166	     -0.0165132	      0.0000000
      0.0324585	     -0.0140497	      0.0000000
      0.0167403	     -0.0117499	      0.0000000
     -0.0008197	     -0.0095171	      0.0000000
     -0.0201620	     -0.0072841	      0.0000000
     -0.0412511	     -0.0050122	      0.0000000
     -0.0640805	     -0.0026825	      0.0000000
     -0.0886494	     -0.0002910	      0.0000000
     -0.1149605	      0.0021559	      0.0000000
     -0.1429793	      0.0046281	      0.0000000
     -0.1726645	      0.0070975	      0.0000000
     -0.2039496	      0.0095350	      0.0000000
     -0.2367472	      0.0119104	      0.0000000
     -0.2709463	      0.0141937	      0.0000000
     -0.3064136	      0.0163529	      0.0000000
     -0.3429953	      0.0183551	      0.0000000
     -0.3805198	      0.0201709	      0.0000000
     -0.4187983	      0.0217737	      0.0000000
     -0.4576257	      0.0231379	      0.0000000
     -0.4967835	      0.0242391	      0.0000000
     -0.5360412	      0.0250545	      0.0000000
     -0.5751585	      0.0255627	      0.0000000
     -0.6138874	      0.0257443	      0.0000000
     -0.6519736	      0.0255817	      0.0000000
     -0.6891586	      0.0250597	      0.0000000
     -0.7251817	      0.0241649	      0.0000000
     -0.7597808	      0.0228865	      0.0000000
     -0.7926948	      0.0212158	      0.0000000
     -0.8236643	      0.0191464	      0.0000000
     -0.8524337	      0.0166746	      0.0000000
     -0.8787519	      0.0137989	      0.0000000
     -0.9023740	      0.0105211	      0.0000000
     -0.9230610	      0.0068480	      0.0000000
     -0.9405778	      0.0027908	      0.0000000
     -0.9546960	     -0.0016431	      0.0000000
     -0.9651732	     -0.0064750	      0.0000000
     -0.9718202	     -0.0117384	      0.0000000
     -0.9744196	     -0.0174117	      0.0000000
     -0.9727974	     -0.0234394	      0.0000000
     -0.9668123	     -0.0297699	      0.0000000
     -0.9563535	     -0.0363498	      0.0000000
     -0.9413425	     -0.0431236	      0.0000000
     -0.9217344	     -0.0500313	      0.0000000
     -0.8975203	     -0.0570073	      0.0000000
     -0.8687294	     -0.0639793	      0.0000000
     -0.8354331	     -0.0708685	      0.0000000
     -0.7977474	     -0.0775889	      0.0000000
     -0.7558367	     -0.0840483	      0.0000000
     -0.7099168	     -0.0901490	      0.0000000
     -0.6602580	     -0.0957884	      0.0000000
     -0.6071873	     -0.1008615	      0.0000000
     -0.5510903	     -0.1052619	      0.0000000
     -0.4924124	     -0.1088850	      0.0000000
     -0.4316582	     -0.1116305	      0.0000000
     -0.3693904	     -0.1134060	      0.0000000
     -0.3062262	     -0.1141303	      0.0000000
     -0.2428329	     -0.1137380	      0.0000000
     -0.1799204	     -0.1121831	      0.0000000
     -0.1182311	     -0.1094448	      0.0000000
     -0.0585308	     -0.1055316	      0.0000000
     -0.0015796	     -0.1004901	      0.0000000
      0.0518379	     -0.0944086	      0.0000000
      0.1010373	     -0.0874081	      0.0000000
      0.1453737	     -0.0796193	      0.0000000
      0.1842914	     -0.0712241	      0.0000000
      0.2173403	     -0.0624256	      0.0000000
      0.2441963	     -0.0534428	      0.0000000
      0.2646749	     -0.0445030	      0.0000000
      0.2787436	     -0.0358322	      0.0000000
      0.2865251	     -0.0276434	      0.0000000
      0.2882967	     -0.0201286	      0.0000000
      0.2844771	     -0.0134467	      0.0000000
      0.2756169	     -0.0077192	      0.0000000
      0.2623685	     -0.0029892	      0.0000000
      0.2454284	      0.0007797	      0.0000000
      0.2254932	      0.0036295	      0.0000000
      0.2032888	      0.0055935	      0.0000000
      0.1795095	      0.0067168	      0.0000000
      0.1548293	      0.0070372	      0.0000000
      0.1299062	      0.0065688	      0.0000000
      0.1053763	      0.0052956	      0.0000000
      0.0819089	      0.0031678	      0.0000000
      0.0601024	      0.0002029	      0.0000000
      0.0406988	     -0.0034724	      0.0000000
      0.0239435	     -0.0069045	      0.0000000
      0.0107303	     -0.0086476	      0.0000000
      0.0000000	      0.0000000	      0.0000000
      0.0000000	      0.0000000	      0.0000000
     -0.0120317	     -0.0344253	      0.0000000
     -0.0115775	     -0.0577688	      0.0000000
      0.0013211	     -0.0722613	      0.0000000
      0.0161948	     -0.0793074	      0.0000000
      0.0336957	     -0.0805012	      0.0000000
      0.0501559	     -0.0773071	      0.0000000
      0.0643643	     -0.0710556	      0.0000000
      0.0749051	     -0.0629264	      0.0000000
      0.0811425	     -0.0539031	      0.0000000
      0.0827343	     -0.0447519	      0.0000000
      0.0796894	     -0.0360058	      0.0000000
      0.0722077	     -0.0279777	      0.0000000
      0.0606106	     -0.0207880	      0.0000000
      0.0452537	     -0.0144068	      0.0000000
      0.0264683	     -0.0087089	      0.0000000
      0.0045444	     -0.0035179	      0.0000000
     -0.0203063	      0.0013394	      0.0000000
     -0.0479080	      0.0060164	      0.0000000
     -0.0781248	      0.0106214	      0.0000000
     -0.1108728	      0.0152275	      0.0000000
     -0.1460864	      0.0198715	      0.0000000
     -0.1837034	      0.0245559	      0.0000000
     -0.2236488	      0.0292514	      0.0000000
     -0.2658275	      0.0339113	      0.0000000
     -0.3101216	      0.0384839	      0.0000000
     -0.3563827	      0.0429123	      0.0000000
     -0.4044338	      0.0471379	      0.0000000
     -0.4540689	      0.0511025	      0.0000000
     -0.5050557	      0.0547484	      0.0000000
     -0.5571385	      0.0580196	      0.0000000
     -0.6100417	      0.0608643	      0.0000000
     -0.6634711	      0.0632349	      0.0000000
     -0.7171174	      0.0650878	      0.0000000
     -0.7706589	      0.0663834	      0.0000000
     -0.8237653	      0.0670860	      0.0000000
     -0.8761003	      0.0671642	      0.0000000
     -0.9273249	      0.0665907	      0.0000000
     -0.9770995	      0.0653429	      0.0000000
     -1.0250869	      0.0634024	      0.0000000
     -1.0709545	      0.0607552	      0.0000000
     -1.1143761	      0.0573918	      0.0000000
     -1.1550336	      0.0533066	      0.0000000
     -1.1926189	      0.0484984	      0.0000000
     -1.2268350	      0.0429701	      0.0000000
     -1.2573970	      0.0367283	      0.0000000
     -1.2840333	      0.0297836	      0.0000000
     -1.3064846	      0.0221499	      0.0000000
     -1.3245012	      0.0138423	      0.0000000
     -1.3378574	      0.0048749	      0.0000000
     -1.3463079	     -0.0047611	      0.0000000
     -1.3496329	     -0.0150691	      0.0000000
     -1.3477192	     -0.0259872	      0.0000000
     -1.3404402	     -0.0374236	      0.0000000
     -1.3277155	     -0.0492900	      0.0000000
     -1.3094905	     -0.0614953	      0.0000000
     -1.2857436	     -0.0739441	      0.0000000
     -1.2564863	     -0.0865341	      0.0000000
     -1.2217663	     -0.0991544	      0.0000000
     -1.1816693	     -0.1116845	      0.0000000
     -1.1363222	     -0.1239939	      0.0000000
     -1.0858956	     -0.1359420	      0.0000000
     -1.0306066	     -0.1473786	      0.0000000
     -0.9707225	     -0.1581448	      0.0000000
     -0.9065631	     -0.1680748	      0.0000000
     -0.8385035	     -0.1769978	      0.0000000
     -0.7669766	     -0.1847411	      0.0000000
     -0.6924743	     -0.1911336	      0.0000000
     -0.6155488	     -0.1960096	      0.0000000
     -0.5368119	     -0.1992140	      0.0000000
     -0.4569337	     -0.2006076	      0.0000000
     -0.3766393	     -0.2000732	      0.0000000
     -0.2967040	     -0.1975223	      0.0000000
     -0.2179460	     -0.1929020	      0.0000000
     -0.1412167	     -0.1862037	      0.0000000
     -0.0673920	     -0.1774686	      0.0000000
      0.0026614	     -0.1668121	      0.0000000
      0.0680260	     -0.1544091	      0.0000000
      0.1279370	     -0.1405054	      0.0000000
      0.1816521	     -0.1253666	      0.0000000
      0.2285449	     -0.1093277	      0.0000000
      0.2681067	     -0.0927568	      0.0000000
      0.2999708	     -0.0760469	      0.0000000
      0.3239348	     -0.0596026	      0.0000000
      0.3399724	     -0.0438195	      0.0000000
      0.3482415	     -0.0290681	      0.0000000
      0.3490763	     -0.0156747	      0.0000000
      0.3430019	     -0.0039093	      0.0000000
      0.3306622	      0.0060690	      0.0000000
      0.3128944	      0.0142397	      0.0000000
      0.2905811	      0.0206190	      0.0000000
      0.2646163	      0.0252420	      0.0000000
      0.2359083	      0.0281741	      0.0000000
      0.2053525	      0.0294766	      0.0000000
      0.1738372	      0.0291839	      0.0000000
      0.1422199	      0.0272938	      0.0000000
      0.1113993	      0.0237654	      0.0000000
      0.0821570	      0.0186361	      0.0000000
      0.0555890	      0.0120695	      0.0000000
      0.0320288	      0.0050680	      0.0000000
      0.0139496	     -0.0010241	      0.0000000
      0.0000000	      0.0000000	      0.0000000
      0.0000000	      0.0000000	      0.0000000
     -0.0111124	     -0.0453233	      0.0000000
     -0.0098255	     -0.0771159	      0.0000000
      0.0033119	     -0.0972357	      0.0000000
      0.0179102	     -0.1070750	      0.0000000
      0.0346045	     -0.1085167	      0.0000000
      0.0497202	     -0.1034966	      0.0000000
      0.0620059	     -0.0938886	      0.0000000
      0.0699982	     -0.0813882	      0.0000000
      0.0730128	     -0.0674336	      0.0000000
      0.0706599	     -0.0531559	      0.0000000
      0.0629044	     -0.0393541	      0.0000000
      0.0499047	     -0.0265102	      0.0000000
      0.0319448	     -0.0148253	      0.0000000
      0.0093530	     -0.0042757	      0.0000000
     -0.0175724	      0.0052961	      0.0000000
     -0.0484960	      0.0140941	      0.0000000
     -0.0831272	      0.0223369	      0.0000000
     -0.1212429	      0.0302207	      0.0000000
     -0.1626623	      0.0379021	      0.0000000
     -0.2072362	      0.0454844	      0.0000000
     -0.2548231	      0.0530117	      0.0000000
     -0.3052746	      0.0604781	      0.0000000
     -0.3584233	      0.0678381	      0.0000000
     -0.4140778	      0.0750194	      0.0000000
     -0.4720174	      0.0819384	      0.0000000
     -0.5319892	      0.0885057	      0.0000000
     -0.5937096	      0.0946307	      0.0000000
     -0.6568663	      0.1002249	      0.0000000
     -0.7211217	      0.1052037	      0.0000000
     -0.7861175	      0.1094876	      0.0000000
     -0.8514785	      0.1130045	      0.0000000
     -0.9168165	      0.1156896	      0.0000000
     -0.9817342	      0.1174859	      0.0000000
     -1.0458298	      0.1183437	      0.0000000
     -1.1087006	      0.1182210	      0.0000000
     -1.1699472	      0.1170836	      0.0000000
     -1.2291768	      0.1149046	      0.0000000
     -1.2860059	      0.1116645	      0.0000000
     -1.3400635	      0.1073509	      0.0000000
     -1.3909929	      0.1019584	      0.0000000
     -1.4384537	      0.0954876	      0.0000000
     -1.4821233	      0.0879455	      0.0000000
     -1.5216976	      0.0793446	      0.0000000
     -1.5568923	      0.0697026	      0.0000000
     -1.5874428	      0.0590420	      0.0000000
     -1.6131047	      0.0473896	      0.0000000
     -1.6336525	      0.0347748	      0.0000000
     -1.6488783	      0.0212293	      0.0000000
     -1.6586124	      0.0067820	      0.0000000
     -1.6626540	     -0.0085616	      0.0000000
     -1.6608710	     -0.0247404	      0.0000000
     -1.6532435	     -0.0416304	      0.0000000
     -1.6397228	     -0.0591186	      0.0000000
     -1.6203001	     -0.0770872	      0.0000000
     -1.5949839	     -0.0954142	      0.0000000
     -1.5638083	     -0.1139705	      0.0000000
     -1.5268332	     -0.1326174	      0.0000000
     -1.4841474	     -0.1512051	      0.0000000
     -1.4358705	     -0.1695716	      0.0000000
     -1.3821555	     -0.1875420	      0.0000000
     -1.3231920	     -0.2049282	      0.0000000
     -1.2592089	     -0.2215297	      0.0000000
     -1.1904781	     -0.2371340	      0.0000000
     -1.1173174	     -0.2515194	      0.0000000
     -1.0400943	     -0.2644566	      0.0000000
     -0.9592286	     -0.2757125	      0.0000000
     -0.8751952	     -0.2850543	      0.0000000
     -0.7885263	     -0.2922549	      0.0000000
     -0.6998126	     -0.2970984	      0.0000000
     -0.6097032	     -0.2993875	      0.0000000
     -0.5189044	     -0.2989507	      0.0000000
     -0.4281773	     -0.2956513	      0.0000000
     -0.3383324	     -0.2893965	      0.0000000
     -0.2502238	     -0.2801469	      0.0000000
     -0.1647385	     -0.2679281	      0.0000000
     -0.0827906	     -0.2528401	      0.0000000
     -0.0052858	     -0.2350924	      0.0000000
      0.0668019	     -0.2149694	      0.0000000
      0.1326618	     -0.1928679	      0.0000000
      0.1915108	     -0.1692178	      0.0000000
      0.2426868	     -0.1445126	      0.0000000
      0.2856490	     -0.1193027	      0.0000000
      0.3200102	     -0.0941675	      0.0000000
      0.3455570	     -0.0696897	      0.0000000
      0.3622652	     -0.0464335	      0.0000000
      0.3703006	     -0.0249195	      0.0000000
      0.3700538	     -0.0055992	      0.0000000
      0.3620500	      0.0111706	      0.0000000
      0.3471306	      0.0252239	      0.0000000
      0.3262240	      0.0365258	      0.0000000
      0.3003026	      0.0450822	      0.0000000
      0.2703943	      0.0509478	      0.0000000
      0.2375385	      0.0541890	      0.0000000
      0.2027882	      0.0548520	      0.0000000
      0.1671726	      0.0529436	      0.0000000
      0.1317861	      0.0484232	      0.0000000
      0.0975913	      0.0413004	      0.0000000
      0.0660348	      0.0316797	      0.0000000
      0.0376414	      0.0203220	      0.0000000
      0.0161377	      0.0082603	      0.0000000
      0.0000000	      0.0000000	      0.0000000
      0.0000000	      0.0000000	      0.0000000
     -0.0106520	     -0.0562853	      0.0000000
     -0.0092673	     -0.0959764	      0.0000000
      0.0030761	     -0.1210521	      0.0000000
      0.0159806	     -0.1329832	      0.0000000
      0.0301163	     -0.1339961	      0.0000000
      0.0419126	     -0.1264962	      0.0000000
      0.0502024	     -0.1128884	      0.0000000
      0.0535881	     -0.0953715	      0.0000000
      0.0514249	     -0.0758272	      0.0000000
      0.0433343	     -0.0557427	      0.0000000
      0.0292662	     -0.0361699	      0.0000000
      0.0093528	     -0.0177477	      0.0000000
     -0.0161777	     -0.0007641	      0.0000000
     -0.0470600	      0.0147897	      0.0000000
     -0.0828808	      0.0290173	      0.0000000
     -0.1233066	      0.0421443	      0.0000000
     -0.1680309	      0.0544451	      0.0000000
     -0.2167919	      0.0661705	      0.0000000
     -0.2693527	      0.0775075	      0.0000000
     -0.3254862	      0.0885688	      0.0000000
     -0.3849577	      0.0993929	      0.0000000
     -0.4475150	      0.1099558	      0.0000000
     -0.5128804	      0.1201860	      0.0000000
     -0.5807479	      0.1299823	      0.0000000
     -0.6507818	      0.1392288	      0.0000000
     -0.7226163	      0.1478037	      0.0000000
     -0.7958587	      0.1555864	      0.0000000
     -0.8700932	      0.1624617	      0.0000000
     -0.9448857	      0.1683226	      0.0000000
     -1.0197892	      0.1730721	      0.0000000
     -1.0943490	      0.1766245	      0.0000000
     -1.1681076	      0.1789064	      0.0000000
     -1.2406099	      0.1798563	      0.0000000
     -1.3114077	      0.1794249	      0.0000000
     -1.3800641	      0.1775747	      0.0000000
     -1.4461577	      0.1742796	      0.0000000
     -1.5092854	      0.1695242	      0.0000000
     -1.5690654	      0.1633035	      0.0000000
     -1.6251393	      0.1556222	      0.0000000
     -1.6771736	      0.1464934	      0.0000000
     -1.7248607	      0.1359385	      0.0000000
     -1.7679194	      0.1239858	      0.0000000
     -1.8060949	      0.1106701	      0.0000000
     -1.8391588	      0.0960317	      0.0000000
     -1.8669085	      0.0801158	      0.0000000
     -1.8891663	      0.0629710	      0.0000000
     -1.9057779	      0.0446492	      0.0000000
     -1.9166117	      0.0252046	      0.0000000
     -1.9215854	      0.0046878	      0.0000000
     -1.9205482	     -0.0168640	      0.0000000
     -1.9135292	     -0.0393175	      0.0000000
     -1.9005492	     -0.0625060	      0.0000000
     -1.8816284	     -0.0863032	      0.0000000
     -1.8568060	     -0.1105721	      0.0000000
     -1.8261315	     -0.1351694	      0.0000000
     -1.7896693	     -0.1599415	      0.0000000
     -1.7475001	     -0.1847226	      0.0000000
     -1.6997239	     -0.2093332	      0.0000000
     -1.6464625	     -0.2335784	      0.0000000
     -1.5878621	     -0.2572474	      0.0000000
     -1.5240973	     -0.2801130	      0.0000000
     -1.4553743	     -0.3019317	      0.0000000
     -1.3819349	     -0.3224448	      0.0000000
     -1.3040607	     -0.3413805	      0.0000000
     -1.2220773	     -0.3584563	      0.0000000
     -1.1363578	     -0.3733828	      0.0000000
     -1.0473274	     -0.3858687	      0.0000000
     -0.9554658	     -0.3956268	      0.0000000
     -0.8613103	     -0.4023806	      0.0000000
     -0.7654568	     -0.4058729	      0.0000000
     -0.6685607	     -0.4058748	      0.0000000
     -0.5713354	     -0.4021960	      0.0000000
     -0.4745493	     -0.3946958	      0.0000000
     -0.3790213	     -0.3832954	      0.0000000
     -0.2856136	     -0.3679900	      0.0000000
     -0.1952224	     -0.3488639	      0.0000000
     -0.1087720	     -0.3261010	      0.0000000
     -0.0271886	     -0.3000251	      0.0000000
      0.0485499	     -0.2710581	      0.0000000
      0.1175696	     -0.2397581	      0.0000000
      0.1790821	     -0.2067407	      0.0000000
      0.2323973	     -0.1726749	      0.0000000
      0.2769638	     -0.1383079	      0.0000000
      0.3123876	     -0.1044036	      0.0000000
      0.3384526	     -0.0717215	      0.0000000
      0.3551343	     -0.0409904	      0.0000000
      0.3626375	     -0.0128663	      0.0000000
      0.3613349	      0.0120443	      0.0000000
      0.3519052	      0.0333560	      0.0000000
      0.3352632	      0.0509339	      0.0000000
      0.3123687	      0.0647133	      0.0000000
      0.2842903	      0.0747039	      0.0000000
      0.2521397	      0.0809495	      0.0000000
      0.2170745	      0.0834863	      0.0000000
      0.1802507	      0.0823110	      0.0000000
      0.1429260	      0.0773591	      0.0000000
      0.1062352	      0.0685612	      0.0000000
      0.0719344	      0.0558734	      0.0000000
      0.0407572	      0.0396318	      0.0000000
      0.0173146	      0.0203248	      0.0000000
      0.0000000	      0.0000000	      0.0000000
      0.0000000	      0.0000000	      0.0000000
     -0.0107581	     -0.0675512	      0.0000000
     -0.0100547	     -0.1143283	      0.0000000
      0.0004236	     -0.1433128	      0.0000000
      0.0103281	     -0.1562787	      0.0000000
      0.0203962	     -0.1559267	      0.0000000
      0.0272271	     -0.1451553	      0.0000000
      0.0298157	     -0.1268898	      0.0000000