# vtk DataFile Version 2.0
vw
ASCII
DATASET STRUCTURED_POINTS
DIMENSIONS  102  102    1
ORIGIN      0.0000000      0.0000000      0.0000000
SPACING      0.0100000      0.0100000      0.0100000
POINT_DATA  10404
VECTORS velocity float
      0.0000000	      0.0000000	      0.0000000
      0.0000000	      0.0000000	      0.0000000
      0.0000000	      0.0000000	      0.0000000
      0.0000000	      0.0000000	      0.0000000
      0.0000000	      0.0000000	      0.0000000
      0.0000000	      0.0000000	      0.0000000
      0.0000000	      0.0000000	      0.0000000
      0.0000000	      0.0000000	      0.0000000
      0.0000000	      0.0000000	      0.0000000
      0.0000000	      0.0000000	      0.0000000
      0.0000000	      0.0000000	      0.0000000
      0.0000000	      0.0000000	      0.0000000
      0.0000000	      0.0000000	      0.0000000
      0.0000000	      0.0000000	      0.0000000
      0.0000000	      0.0000000	      0.0000000
      0.0000000	      0.0000000	      0.0000000
      0.0000000	      0.0000000	      0.0000000
      0.0000000	      0.0000000	      0.0000000
      0.0000000	      0.0000000	      0.0000000
      0.0000000	      0.0000000	      0.0000000
      0.0000000	      0.0000000	      0.0000000
      0.0000000	      0.0000000	      0.0000000
      0.0000000	      0.0000000	      0.0000000
      0.0000000	      0.0000000	      0.0000000
      0.0000000	      0.0000000	      0.0000000
      0.0000000	      0.0000000	      0.0000000
      0.0000000	      0.0000000	      0.0000000
      0.0000000	      0.0000000	      0.0000000
      0.0000000	      0.0000000	      0.0000000
      0.0000000	      0.0000000	      0.0000000
      0.0000000	      0.0000000	      0.0000000
      0.0000000	      0.0000000	      0.0000000
      0.0000000	      0.0000000	      0.0000000
      0.0000000	      0.0000000	      0.0000000
      0.0000000	      0.0000000	      0.0000000
      0.0000000	      0.0000000	      0.0000000
      0.0000000	      0.0000000	      0.0000000
      0.0000000	      0.0000000	      0.0000000
      0.0000000	      0.0000000	      0.0000000
      0.0000000	      0.0000000	      0.0000000
      0.0000000	      0.0000000	      0.0000000
      0.0000000	      0.0000000	      0.0000000
      0.0000000	      0.0000000	      0.0000000
      0.0000000	      0.0000000	      0.0000000
      0.0000000	      0.0000000	      0.0000000
      0.0000000	      0.0000000	      0.0000000
      0.0000000	      0.0000000	      0.0000000
      0.0000000	      0.0000000	      0.0000000
      0.0000000	      0.0000000	      0.0000000
      0.0000000	      0.0000000	      0.0000000
      0.0000000	      0.0000000	      0.0000000
      0.0000000	      0.0000000	      0.0000000
      0.0000000	      0.0000000	      0.0000000
      0.0000000	      0.0000000	      0.0000000
      0.0000000	      0.0000000	      0.0000000
      0.0000000	      0.0000000	      0.0000000
      0.0000000	      0.0000000	      0.0000000
      0.0000000	      0.0000000	      0.0000000
      0.0000000	      0.0000000	      0.0000000
      0.0000000	      0.0000000	      0.0000000
      0.0000000	      0.0000000	      0.0000000
      0.0000000	      0.0000000	      0.0000000
      0.0000000	      0.0000000	      0.0000000
      0.0000000	      0.0000000	      0.0000000
      0.0000000	      0.0000000	      0.0000000
      0.0000000	      0.0000000	      0.0000000
      0.0000000	      0.0000000	      0.0000000
      0.0000000	      0.0000000	      0.0000000
      0.0000000	      0.0000000	      0.0000000
      0.0000000	      0.0000000	      0.0000000
      0.0000000	      0.0000000	      0.0000000
      0.0000000	      0.0000000	      0.0000000
      0.0000000	      0.0000000	      0.0000000
      0.0000000	      0.0000000	      0.0000000
      0.0000000	      0.0000000	      0.0000000
      0.0000000	      0.0000000	      0.0000000
      0.0000000	      0.0000000	      0.0000000
      0.0000000	      0.0000000	      0.0000000
      0.0000000	      0.0000000	      0.0000000
      0.0000000	      0.0000000	      0.0000000
      0.0000000	      0.0000000	      0.0000000
      0.0000000	      0.0000000	      0.0000000
      0.0000000	      0.0000000	      0.0000000
      0.0000000	      0.0000000	      0.0000000
      0.0000000	      0.0000000	      0.0000000
      0.0000000	      0.0000000	      0.0000000
      0.0000000	      0.0000000	      0.0000000
      0.0000000	      0.0000000	      0.0000000
      0.0000000	      0.0000000	      0.0000000
      0.0000000	      0.0000000	      0.0000000
      0.0000000	      0.0000000	      0.0000000
      0.0000000	      0.0000000	      0.0000000
      0.0000000	      0.0000000	      0.0000000
      0.0000000	      0.0000000	      0.0000000
      0.0000000	      0.0000000	      0.0000000
      0.0000000	      0.0000000	      0.0000000
      0.0000000	      0.0000000	      0.0000000
      0.0000000	      0.0000000	      0.0000000
      0.0000000	      0.0000000	      0.0000000
      0.0000000	      0.0000000	      0.0000000
      0.0000000	      0.0000000	      0.0000000
      0.0000000	      0.0000000	      0.0000000
      0.0000000	      0.0000000	      0.0000000
     -0.0121566	     -0.0151236	      0.0000000
     -0.0110674	     -0.0214590	      0.0000000
     -0.0010419	     -0.0247190	      0.0000000
      0.0101988	     -0.0260882	      0.0000000
      0.0235272	     -0.0261996	      0.0000000
      0.0361202	     -0.0254606	      0.0000000
      0.0476122	     -0.0241223	      0.0000000
      0.0569607	     -0.0224523	      0.0000000
      0.0639661	     -0.0206506	      0.0000000
      0.0684353	     -0.0188899	      0.0000000
      0.0705097	     -0.0172819	      0.0000000
      0.0703967	     -0.0158907	      0.0000000
      0.0683999	     -0.0147307	      0.0000000
      0.0648121	     -0.0137806	      0.0000000
      0.0598944	     -0.0129940	      0.0000000
      0.0538412	     -0.0123144	      0.0000000
      0.0467794	     -0.0116843	      0.0000000
      0.0387625	     -0.0110553	      0.0000000
      0.0297882	     -0.0103931	      0.0000000
      0.0198126	     -0.0096771	      0.0000000
      0.0087701	     -0.0088980	      0.0000000
     -0.0034157	     -0.0080491	      0.0000000
     -0.0168182	     -0.0071315	      0.0000000
     -0.0314934	     -0.0061580	      0.0000000
     -0.0474817	     -0.0051406	      0.0000000
     -0.0648049	     -0.0040918	      0.0000000
     -0.0834659	     -0.0030238	      0.0000000
     -0.1034488	     -0.0019489	      0.0000000
     -0.1247166	     -0.0008782	      0.0000000
     -0.1472173	      0.0001756	      0.0000000
     -0.1708712	      0.0011918	      0.0000000
     -0.1955809	      0.0021548	      0.0000000
     -0.2212309	      0.0030511	      0.0000000
     -0.2476886	      0.0038672	      0.0000000
     -0.2748050	      0.0045893	      0.0000000
     -0.3024152	      0.0052034	      0.0000000
     -0.3303400	      0.0056960	      0.0000000
     -0.3583868	      0.0060538	      0.0000000
     -0.3863516	      0.0062644	      0.0000000
     -0.4140202	      0.0063163	      0.0000000
     -0.4411700	      0.0061991	      0.0000000
     -0.4675719	      0.0059036	      0.0000000
     -0.4929919	      0.0054217	      0.0000000
     -0.5171933	      0.0047470	      0.0000000
     -0.5399376	      0.0038745	      0.0000000
     -0.5609880	      0.0028008	      0.0000000
     -0.5801080	      0.0015249	      0.0000000
     -0.5970712	      0.0000484	      0.0000000
     -0.6116470	     -0.0016169	      0.0000000
     -0.6236300	     -0.0034551	      0.0000000
     -0.6328152	     -0.0054934	      0.0000000
     -0.6389742	     -0.0077709	      0.0000000
     -0.6418720	     -0.0102713	      0.0000000
     -0.6413147	     -0.0129589	      0.0000000
     -0.6371483	     -0.0158018	      0.0000000
     -0.6292529	     -0.0187681	      0.0000000
     -0.6175458	     -0.0218254	      0.0000000
     -0.6019810	     -0.0249389	      0.0000000
     -0.5825530	     -0.0280704	      0.0000000
     -0.5592993	     -0.0311784	      0.0000000
     -0.5323044	     -0.0342173	      0.0000000
     -0.5017028	     -0.0371385	      0.0000000
     -0.4676831	     -0.0398900	      0.0000000
     -0.4304900	     -0.0424177	      0.0000000
     -0.3904273	     -0.0446662	      0.0000000
     -0.3478591	     -0.0465801	      0.0000000
     -0.3032097	     -0.0481053	      0.0000000
     -0.2569625	     -0.0491913	      0.0000000
     -0.2096565	     -0.0497925	      0.0000000
     -0.1618812	     -0.0498716	      0.0000000
     -0.1142690	     -0.0494011	      0.0000000
     -0.0674838	     -0.0483673	      0.0000000
     -0.0222071	     -0.0467719	      0.0000000
      0.0208793	     -0.0446430	      0.0000000
      0.0611145	     -0.0420295	      0.0000000
      0.0978977	     -0.0389760	      0.0000000
      0.1306838	     -0.0355540	      0.0000000
      0.1590150	     -0.0318560	      0.0000000
      0.1825398	     -0.0279826	      0.0000000
      0.2010291	     -0.0240475	      0.0000000
      0.2143902	     -0.0201662	      0.0000000
      0.2226739	     -0.0164512	      0.0000000
      0.2260708	     -0.0130074	      0.0000000
      0.2249104	     -0.0099282	      0.0000000
      0.2196398	     -0.0072859	      0.0000000
      0.2108154	     -0.0051339	      0.0000000
      0.1990422	     -0.0034485	      0.0000000
      0.1849033	     -0.0021733	      0.0000000
      0.1689597	     -0.0012879	      0.0000000
      0.1517592	     -0.0007586	      0.0000000
      0.1338005	     -0.0005452	      0.0000000
      0.1155433	     -0.0006076	      0.0000000
      0.0973911	     -0.0009136	      0.0000000
      0.0797341	     -0.0014566	      0.0000000
      0.0629285	     -0.0022511	      0.0000000
      0.0474059	     -0.0033643	      0.0000000
      0.0335784	     -0.0048161	      0.0000000
      0.0219610	     -0.0066417	      0.0000000
      0.0129246	     -0.0081798	      0.0000000
      0.0059135	     -0.0083277	      0.0000000
      0.0000000	      0.0000000	      0.0000000
      0.0000000	      0.0000000	      0.0000000
     -0.0122717	     -0.0247930	      0.0000000
     -0.0092213	     -0.0393156	      0.0000000
      0.0047342	     -0.0479996	      0.0000000
      0.0215591	     -0.0522333	      0.0000000
      0.0413965	     -0.0530640	      0.0000000
      0.0604753	     -0.0513730	      0.0000000
      0.0778504	     -0.0478837	      0.0000000
      0.0919412	     -0.0433047	      0.0000000
      0.1022555	     -0.0382214	      0.0000000
      0.1084129	     -0.0331175	      0.0000000
      0.1105068	     -0.0283288	      0.0000000
      0.1087712	     -0.0240556	      0.0000000
      0.1035954	     -0.0203667	      0.0000000
      0.0953796	     -0.0172299	      0.0000000
      0.0844936	     -0.0145392	      0.0000000
      0.0712273	     -0.0121642	      0.0000000
      0.0557756	     -0.0099600	      0.0000000
      0.0382394	     -0.0077956	      0.0000000
      0.0186369	     -0.0055726	      0.0000000
     -0.0030707	     -0.0032243	      0.0000000
     -0.0269585	     -0.0007200	      0.0000000
     -0.0531140	      0.0019500	      0.0000000
     -0.0815951	      0.0047622	      0.0000000
     -0.1124461	      0.0076841	      0.0000000
     -0.1456802	      0.0106800	      0.0000000
     -0.1812781	      0.0137113	      0.0000000
     -0.2191845	      0.0167377	      0.0000000
     -0.2593078	      0.0197183	      0.0000000
     -0.3015193	      0.0226121	      0.0000000
     -0.3456538	      0.0253740	      0.0000000
     -0.3915126	      0.0279572	      0.0000000
     -0.4388671	      0.0303202	      0.0000000
     -0.4874579	      0.0324237	      0.0000000
     -0.5369976	      0.0342296	      0.0000000
     -0.5871741	      0.0357010	      0.0000000
     -0.6376534	      0.0368029	      0.0000000
     -0.6880830	      0.0375027	      0.0000000
     -0.7380954	      0.0377706	      0.0000000
     -0.7873112	      0.0375800	      0.0000000
     -0.8353432	      0.0369079	      0.0000000
     -0.8817991	      0.0357353	      0.0000000
     -0.9262856	      0.0340468	      0.0000000
     -0.9684110	      0.0318314	      0.0000000
     -1.0077886	      0.0290821	      0.0000000
     -1.0440392	      0.0257962	      0.0000000
     -1.0767947	      0.0219754	      0.0000000
     -1.1056986	      0.0176260	      0.0000000
     -1.1304120	      0.0127586	      0.0000000
     -1.1506044	      0.0073924	      0.0000000
     -1.1659693	      0.0015501	      0.0000000
     -1.1761754	     -0.0047820	      0.0000000
     -1.1809541	     -0.0116358	      0.0000000
     -1.1800711	     -0.0189696	      0.0000000
     -1.1733371	     -0.0266948	      0.0000000
     -1.1606188	     -0.0347314	      0.0000000
     -1.1418289	     -0.0429983	      0.0000000
     -1.1169324	     -0.0514120	      0.0000000
     -1.0859463	     -0.0598841	      0.0000000
     -1.0489433	     -0.0683195	      0.0000000
     -1.0060545	     -0.0766159	      0.0000000
     -0.9574725	     -0.0846636	      0.0000000
     -0.9034553	     -0.0923459	      0.0000000
     -0.8443290	     -0.0995402	      0.0000000
     -0.7804914	     -0.1061190	      0.0000000
     -0.7124136	     -0.1119520	      0.0000000
     -0.6406424	     -0.1169088	      0.0000000
     -0.5658004	     -0.1208617	      0.0000000
     -0.4885848	     -0.1236896	      0.0000000
     -0.4097653	     -0.1252820	      0.0000000
     -0.3301789	     -0.1255441	      0.0000000
     -0.2507228	     -0.1244022	      0.0000000
     -0.1723429	     -0.1218102	      0.0000000
     -0.0960245	     -0.1177561	      0.0000000
     -0.0227623	     -0.1122717	      0.0000000
      0.0464262	     -0.1054452	      0.0000000
      0.1105893	     -0.0974115	      0.0000000
      0.1688573	     -0.0883257	      0.0000000
      0.2204582	     -0.0783967	      0.0000000
      0.2647473	     -0.0678700	      0.0000000
      0.3012320	     -0.0570198	      0.0000000
      0.3296047	     -0.0461417	      0.0000000
      0.3497579	     -0.0355324	      0.0000000
      0.3617911	     -0.0254816	      0.0000000
      0.3660217	     -0.0162570	      0.0000000
      0.3629604	     -0.0080885	      0.0000000
      0.3533272	     -0.0011429	      0.0000000
      0.3379474	      0.0045560	      0.0000000
      0.3177789	      0.0090555	      0.0000000
      0.2937491	      0.0123868	      0.0000000
      0.2667949	      0.0146220	      0.0000000
      0.2378006	      0.0158538	      0.0000000
      0.2076069	      0.0161798	      0.0000000
      0.1769814	      0.0156834	      0.0000000
      0.1466681	      0.0144004	      0.0000000
      0.1173393	      0.0123229	      0.0000000
      0.0897493	      0.0093533	      0.0000000
      0.0645217	      0.0054793	      0.0000000
      0.0425344	      0.0006874	      0.0000000
      0.0241106	     -0.0039674	      0.0000000
      0.0101441	     -0.0069932	      0.0000000
      0.0000000	      0.0000000	      0.0000000
      0.0000000	      0.0000000	      0.0000000
     -0.0108542	     -0.0336382	      0.0000000
     -0.0058163	     -0.0579368	      0.0000000
      0.0106803	     -0.0735105	      0.0000000
      0.0304353	     -0.0815483	      0.0000000
      0.0532780	     -0.0833594	      0.0000000
      0.0750720	     -0.0803429	      0.0000000
      0.0945647	     -0.0738378	      0.0000000
      0.1099140	     -0.0651225	      0.0000000
      0.1204456	     -0.0553032	      0.0000000
      0.1256520	     -0.0452819	      0.0000000
      0.1255556	     -0.0357064	      0.0000000
      0.1203570	     -0.0269739	      0.0000000
      0.1104405	     -0.0192438	      0.0000000
      0.0962190	     -0.0124864	      0.0000000
      0.0780753	     -0.0065398	      0.0000000
      0.0563292	     -0.0011741	      0.0000000
      0.0311892	      0.0038585	      0.0000000
      0.0028088	      0.0087804	      0.0000000
     -0.0287709	      0.0137636	      0.0000000
     -0.0635354	      0.0189213	      0.0000000
     -0.1015146	      0.0243076	      0.0000000
     -0.1427342	      0.0299185	      0.0000000
     -0.1872023	      0.0357115	      0.0000000
     -0.2348963	      0.0416254	      0.0000000
     -0.2857502	      0.0475853	      0.0000000
     -0.3396503	      0.0535090	      0.0000000
     -0.3964329	      0.0593111	      0.0000000
     -0.4558852	      0.0649050	      0.0000000
     -0.5177461	      0.0702048	      0.0000000
     -0.5817095	      0.0751244	      0.0000000
     -0.6474299	      0.0795791	      0.0000000
     -0.7145256	      0.0834898	      0.0000000
     -0.7825817	      0.0867825	      0.0000000
     -0.8511553	      0.0893886	      0.0000000
     -0.9197806	      0.0912447	      0.0000000
     -0.9879744	      0.0922941	      0.0000000
     -1.0552416	      0.0924864	      0.0000000
     -1.1210802	      0.0917790	      0.0000000
     -1.1849869	      0.0901367	      0.0000000
     -1.2464614	      0.0875324	      0.0000000
     -1.3050110	      0.0839471	      0.0000000
     -1.3601551	      0.0793698	      0.0000000
     -1.4114282	      0.0737972	      0.0000000
     -1.4583834	      0.0672337	      0.0000000
     -1.5005951	      0.0596913	      0.0000000
     -1.5376616	      0.0511888	      0.0000000
     -1.5692057	      0.0417518	      0.0000000
     -1.5948779	      0.0314110	      0.0000000
     -1.6143494	      0.0202015	      0.0000000
     -1.6273274	      0.0081581	      0.0000000
     -1.6335234	     -0.0047147	      0.0000000
     -1.6326666	     -0.0183798	      0.0000000
     -1.6246750	     -0.0327136	      0.0000000
     -1.6094463	     -0.0475784	      0.0000000
     -1.5869460	     -0.0628401	      0.0000000
     -1.5571758	     -0.0783623	      0.0000000
     -1.5201874	     -0.0940036	      0.0000000
     -1.4760809	     -0.1096150	      0.0000000
     -1.4250087	     -0.1250377	      0.0000000
     -1.3671779	     -0.1401031	      0.0000000
     -1.3028529	     -0.1546317	      0.0000000
     -1.2323589	     -0.1684340	      0.0000000
     -1.1560848	     -0.1813115	      0.0000000
     -1.0744867	     -0.1930584	      0.0000000
     -0.9880904	     -0.2034642	      0.0000000
     -0.8974941	     -0.2123173	      0.0000000
     -0.8033699	     -0.2194089	      0.0000000
     -0.7064646	     -0.2245387	      0.0000000
     -0.6075991	     -0.2275205	      0.0000000
     -0.5076656	     -0.2281897	      0.0000000
     -0.4076234	     -0.2264114	      0.0000000
     -0.3084920	     -0.2220891	      0.0000000
     -0.2113409	     -0.2151758	      0.0000000
     -0.1172808	     -0.2056833	      0.0000000
     -0.0274319	     -0.1937083	      0.0000000
      0.0570440	     -0.1794329	      0.0000000
      0.1350735	     -0.1631362	      0.0000000
      0.2056711	     -0.1451433	      0.0000000
      0.2679640	     -0.1258342	      0.0000000
      0.3212181	     -0.1056721	      0.0000000
      0.3648769	     -0.0851614	      0.0000000
      0.3985923	     -0.0648265	      0.0000000
      0.4222383	     -0.0451983	      0.0000000
      0.4359361	     -0.0267877	      0.0000000
      0.4400480	     -0.0100557	      0.0000000
      0.4351823	      0.0046033	      0.0000000
      0.4221861	      0.0169849	      0.0000000
      0.4021845	      0.0270677	      0.0000000
      0.3762713	      0.0348699	      0.0000000
      0.3456133	      0.0404803	      0.0000000
      0.3113514	      0.0440359	      0.0000000
      0.2746070	      0.0456917	      0.0000000
      0.2364359	      0.0455904	      0.0000000
      0.1978755	      0.0438145	      0.0000000
      0.1598655	      0.0403829	      0.0000000
      0.1234448	      0.0352029	      0.0000000
      0.0894324	      0.0282673	      0.0000000
      0.0591146	      0.0195885	      0.0000000
      0.0329488	      0.0102313	      0.0000000
      0.0133131	      0.0016236	      0.0000000
      0.0000000	      0.0000000	      0.0000000
      0.0000000	      0.0000000	      0.0000000
     -0.0092973	     -0.0457261	      0.0000000
     -0.0026616	     -0.0796464	      0.0000000
      0.0152000	     -0.1017808	      0.0000000
      0.0358459	     -0.1132537	      0.0000000
      0.0590606	     -0.1156132	      0.0000000
      0.0806161	     -0.1107467	      0.0000000
      0.0991846	     -0.1005863	      0.0000000
      0.1128472	     -0.0869926	      0.0000000
      0.1208672	     -0.0716014	      0.0000000
      0.1226767	     -0.0557477	      0.0000000
      0.1182434	     -0.0404032	      0.0000000
      0.1077138	     -0.0261713	      0.0000000
      0.0914192	     -0.0133128	      0.0000000
      0.0697171	     -0.0018078	      0.0000000
      0.0429380	      0.0085617	      0.0000000
      0.0114380	      0.0180814	      0.0000000
     -0.0245493	      0.0270748	      0.0000000
     -0.0648432	      0.0358415	      0.0000000
     -0.1093385	      0.0446191	      0.0000000
     -0.1579706	      0.0535544	      0.0000000
     -0.2106876	      0.0627133	      0.0000000
     -0.2674234	      0.0720821	      0.0000000
     -0.3280822	      0.0815889	      0.0000000
     -0.3925233	      0.0911270	      0.0000000
     -0.4605513	      0.1005691	      0.0000000
     -0.5319139	      0.1097777	      0.0000000
     -0.6063015	      0.1186122	      0.0000000
     -0.6833499	      0.1269325	      0.0000000
     -0.7626442	      0.1346021	      0.0000000
     -0.8437242	      0.1414895	      0.0000000
     -0.9260920	      0.1474701	      0.0000000
     -1.0092183	      0.1524297	      0.0000000
     -1.0925480	      0.1562645	      0.0000000
     -1.1755079	      0.1588821	      0.0000000
     -1.2575139	      0.1602020	      0.0000000
     -1.3379784	      0.1601564	      0.0000000
     -1.4163166	      0.1586905	      0.0000000
     -1.4919531	      0.1557626	      0.0000000
     -1.5643278	      0.1513445	      0.0000000
     -1.6329006	      0.1454210	      0.0000000
     -1.6971560	      0.1379893	      0.0000000
     -1.7566065	      0.1290588	      0.0000000
     -1.8107955	      0.1186500	      0.0000000
     -1.8592996	      0.1067941	      0.0000000
     -1.9017299	      0.0935317	      0.0000000
     -1.9377332	      0.0789118	      0.0000000
     -1.9669918	      0.0629915	      0.0000000
     -1.9892244	      0.0458325	      0.0000000
     -2.0041793	      0.0275020	      0.0000000
     -2.0116642	      0.0080672	      0.0000000
     -2.0114584	     -0.0124351	      0.0000000
     -2.0034796	     -0.0338618	      0.0000000
     -1.9877428	     -0.0560027	      0.0000000
     -1.9642547	     -0.0786941	      0.0000000
     -1.9330670	     -0.1017603	      0.0000000
     -1.8942576	     -0.1250233	      0.0000000
     -1.8479410	     -0.1482958	      0.0000000
     -1.7942684	     -0.1713801	      0.0000000
     -1.7334311	     -0.1940662	      0.0000000
     -1.6656636	     -0.2161309	      0.0000000
     -1.5912469	     -0.2373373	      0.0000000
     -1.5105118	     -0.2574352	      0.0000000
     -1.4238430	     -0.2761618	      0.0000000
     -1.3316831	     -0.2932441	      0.0000000
     -1.2345365	     -0.3084014	      0.0000000
     -1.1329729	     -0.3213497	      0.0000000
     -1.0276306	     -0.3318063	      0.0000000
     -0.9192190	     -0.3394965	      0.0000000
     -0.8085196	     -0.3441610	      0.0000000
     -0.6963861	     -0.3455649	      0.0000000
     -0.5837422	     -0.3435077	      0.0000000
     -0.4715780	     -0.3378351	      0.0000000
     -0.3609436	     -0.3284509	      0.0000000
     -0.2529385	     -0.3153331	      0.0000000
     -0.1487054	     -0.2985463	      0.0000000
     -0.0494042	     -0.2782821	      0.0000000
      0.0437645	     -0.2548478	      0.0000000
      0.1296513	     -0.2286917	      0.0000000
      0.2072257	     -0.2003331	      0.0000000
      0.2755540	     -0.1703568	      0.0000000
      0.3338678	     -0.1394640	      0.0000000
      0.3815748	     -0.1083902	      0.0000000
      0.4182883	     -0.0779021	      0.0000000
      0.4438726	     -0.0487630	      0.0000000
      0.4584287	     -0.0216901	      0.0000000
      0.4623651	      0.0026469	      0.0000000
      0.4562759	      0.0237290	      0.0000000
      0.4412942	      0.0413650	      0.0000000
      0.4185282	      0.0555178	      0.0000000
      0.3892275	      0.0662347	      0.0000000
      0.3546651	      0.0736547	      0.0000000
      0.3161365	      0.0779602	      0.0000000
      0.2748991	      0.0793365	      0.0000000
      0.2322155	      0.0779105	      0.0000000
      0.1892446	      0.0737314	      0.0000000
      0.1472782	      0.0667178	      0.0000000
      0.1073347	      0.0568217	      0.0000000
      0.0711143	      0.0439828	      0.0000000
      0.0393152	      0.0289539	      0.0000000
      0.0155444	      0.0127821	      0.0000000
      0.0000000	      0.0000000	      0.0000000
      0.0000000	      0.0000000	      0.0000000
     -0.0083534	     -0.0584557	      0.0000000
     -0.0009462	     -0.1018062	      0.0000000
      0.0171230	     -0.1300026	      0.0000000
      0.0370805	     -0.1442339	      0.0000000
      0.0587046	     -0.1464065	      0.0000000
      0.0777843	     -0.1389200	      0.0000000
      0.0930482	     -0.1243138	      0.0000000
      0.1026249	     -0.1050332	      0.0000000
      0.1058137	     -0.0832393	      0.0000000
      0.1020541	     -0.0606909	      0.0000000
      0.0912979	     -0.0386711	      0.0000000
      0.0736434	     -0.0179839	      0.0000000
      0.0493481	      0.0010269	      0.0000000
      0.0186773	      0.0183805	      0.0000000
     -0.0179651	      0.0342395	      0.0000000
     -0.0602662	      0.0489423	      0.0000000
     -0.1079475	      0.0628999	      0.0000000
     -0.1608129	      0.0764766	      0.0000000
     -0.2187002	      0.0899544	      0.0000000
     -0.2814626	      0.1034996	      0.0000000
     -0.3489395	      0.1171655	      0.0000000
     -0.4209358	      0.1309064	      0.0000000
     -0.4972105	      0.1446055	      0.0000000
     -0.5774672	      0.1581009	      0.0000000
     -0.6613497	      0.1712057	      0.0000000
     -0.7484423	      0.1837224	      0.0000000
     -0.8382731	      0.1954525	      0.0000000
     -0.9303195	      0.2062025	      0.0000000
     -1.0240147	      0.2157889	      0.0000000
     -1.1187566	      0.2240402	      0.0000000
     -1.2139168	      0.2308000	      0.0000000
     -1.3088494	      0.2359295	      0.0000000
     -1.4028991	      0.2393083	      0.0000000
     -1.4954108	      0.2408354	      0.0000000
     -1.5857375	      0.2404298	      0.0000000
     -1.6732482	      0.2380305	      0.0000000
     -1.7573346	      0.2335965	      0.0000000
     -1.8374176	      0.2271061	      0.0000000
     -1.9129519	      0.2185563	      0.0000000
     -1.9834301	      0.2079615	      0.0000000
     -2.0483854	      0.1953523	      0.0000000
     -2.1073937	      0.1807741	      0.0000000
     -2.1600748	      0.1642855	      0.0000000
     -2.2060921	      0.1459568	      0.0000000
     -2.2451526	      0.1258683	      0.0000000
     -2.2770057	      0.1041090	      0.0000000
     -2.3014421	      0.0807746	      0.0000000
     -2.3182920	      0.0559657	      0.0000000
     -2.3274196	      0.0297891	      0.0000000
     -2.3287597	      0.0023397	      0.0000000
     -2.3221658	     -0.0262694	      0.0000000
     -2.3077752	     -0.0557951	      0.0000000
     -2.2856236	     -0.0860028	      0.0000000
     -2.2557918	     -0.1167056	      0.0000000
     -2.2183705	     -0.1477027	      0.0000000
     -2.1734707	     -0.1787870	      0.0000000
     -2.1212244	     -0.2097384	      0.0000000
     -2.0617881	     -0.2403235	      0.0000000
     -1.9953464	     -0.2702932	      0.0000000
     -1.9221155	     -0.2993813	      0.0000000
     -1.8423475	     -0.3273040	      0.0000000
     -1.7563348	     -0.3537599	      0.0000000
     -1.6644150	     -0.3784308	      0.0000000
     -1.5669757	     -0.4009836	      0.0000000
     -1.4644601	     -0.4210736	      0.0000000
     -1.3573714	     -0.4383490	      0.0000000
     -1.2462773	     -0.4524562	      0.0000000
     -1.1318142	     -0.4630477	      0.0000000
     -1.0146896	     -0.4697907	      0.0000000
     -0.8956841	     -0.4723775	      0.0000000
     -0.7756511	     -0.4705377	      0.0000000
     -0.6555147	     -0.4640517	      0.0000000
     -0.5362659	     -0.4527662	      0.0000000
     -0.4189552	     -0.4366101	      0.0000000
     -0.3046847	     -0.4156154	      0.0000000
     -0.1945952	     -0.3899336	      0.0000000
     -0.0898703	     -0.3598737	      0.0000000
      0.0083145	     -0.3259060	      0.0000000
      0.0987027	     -0.2886293	      0.0000000
      0.1802823	     -0.2488255	      0.0000000
      0.2520684	     -0.2073248	      0.0000000
      0.3132766	     -0.1650392	      0.0000000
      0.3632857	     -0.1229648	      0.0000000
      0.4017082	     -0.0821087	      0.0000000
      0.4283786	     -0.0434563	      0.0000000
      0.4434544	     -0.0079408	      0.0000000
      0.4472446	      0.0235348	      0.0000000
      0.4406301	      0.0504718	      0.0000000
      0.4246745	      0.0727224	      0.0000000
      0.4005790	      0.0902380	      0.0000000
      0.3696442	      0.1031096	      0.0000000
      0.3332382	      0.1115059	      0.0000000
      0.2927340	      0.1156220	      0.0000000
      0.2495486	      0.1156080	      0.0000000
      0.2050124	      0.1115252	      0.0000000
      0.1606360	      0.1032862	      0.0000000
      0.1176421	      0.0907494	      0.0000000
      0.0781032	      0.0736939	      0.0000000
      0.0429865	      0.0523442	      0.0000000
      0.0167769	      0.0270909	      0.0000000
      0.0000000	      0.0000000	      0.0000000
      0.0000000	      0.0000000	      0.0000000
     -0.0079968	     -0.0720298	      0.0000000
     -0.0006918	     -0.1242848	      0.0000000
      0.0163713	     -0.1575957	      0.0000000
      0.0341487	     -0.1734940	      0.0000000
      0.0524330	     -0.1744312	      0.0000000
      0.0671067	     -0.1633771	      0.0000000
      0.0770370	     -0.1434917	      0.0000000