# vtk DataFile Version 2.0
vw
ASCII
DATASET STRUCTURED_POINTS
DIMENSIONS  102  102    1
ORIGIN      0.0000000      0.0000000      0.0000000
SPACING      0.0100000      0.0100000      0.0100000
POINT_DATA  10404
VECTORS velocity float
      0.0000000	      0.0000000	      0.0000000
      0.0000000	      0.0000000	      0.0000000
      0.0000000	      0.0000000	      0.0000000
      0.0000000	      0.0000000	      0.0000000
      0.0000000	      0.0000000	      0.0000000
      0.0000000	      0.0000000	      0.0000000
      0.0000000	      0.0000000	      0.0000000
      0.0000000	      0.0000000	      0.0000000
      0.0000000	      0.0000000	      0.0000000
      0.0000000	      0.0000000	      0.0000000
      0.0000000	      0.0000000	      0.0000000
      0.0000000	      0.0000000	      0.0000000
      0.0000000	      0.0000000	      0.0000000
      0.0000000	      0.0000000	      0.0000000
      0.0000000	      0.0000000	      0.0000000
      0.0000000	      0.0000000	      0.0000000
      0.0000000	      0.0000000	      0.0000000
      0.0000000	      0.0000000	      0.0000000
      0.0000000	      0.0000000	      0.0000000
      0.0000000	      0.0000000	      0.0000000
      0.0000000	      0.0000000	      0.0000000
      0.0000000	      0.0000000	      0.0000000
      0.0000000	      0.0000000	      0.0000000
      0.0000000	      0.0000000	      0.0000000
      0.0000000	      0.0000000	      0.0000000
      0.0000000	      0.0000000	      0.0000000
      0.0000000	      0.0000000	      0.0000000
      0.0000000	      0.0000000	      0.0000000
      0.0000000	      0.0000000	      0.0000000
      0.0000000	      0.0000000	      0.0000000
      0.0000000	      0.0000000	      0.0000000
      0.0000000	      0.0000000	      0.0000000
      0.0000000	      0.0000000	      0.0000000
      0.0000000	      0.0000000	      0.0000000
      0.0000000	      0.0000000	      0.0000000
      0.0000000	      0.0000000	      0.0000000
      0.0000000	      0.0000000	      0.0000000
      0.0000000	      0.0000000	      0.0000000
      0.0000000	      0.0000000	      0.0000000
      0.0000000	      0.0000000	      0.0000000
      0.0000000	      0.0000000	      0.0000000
      0.0000000	      0.0000000	      0.0000000
      0.0000000	      0.0000000	      0.0000000
      0.0000000	      0.0000000	      0.0000000
      0.0000000	      0.0000000	      0.0000000
      0.0000000	      0.0000000	      0.0000000
      0.0000000	      0.0000000	      0.0000000
      0.0000000	      0.0000000	      0.0000000
      0.0000000	      0.0000000	      0.0000000
      0.0000000	      0.0000000	      0.0000000
      0.0000000	      0.0000000	      0.0000000
      0.0000000	      0.0000000	      0.0000000
      0.0000000	      0.0000000	      0.0000000
      0.0000000	      0.0000000	      0.0000000
      0.0000000	      0.0000000	      0.0000000
      0.0000000	      0.0000000	      0.0000000
      0.0000000	      0.0000000	      0.0000000
      0.0000000	      0.0000000	      0.0000000
      0.0000000	      0.0000000	      0.0000000
      0.0000000	      0.0000000	      0.0000000
      0.0000000	      0.0000000	      0.0000000
      0.0000000	      0.0000000	      0.0000000
      0.0000000	      0.0000000	      0.0000000
      0.0000000	      0.0000000	      0.0000000
      0.0000000	      0.0000000	      0.0000000
      0.0000000	      0.0000000	      0.0000000
      0.0000000	      0.0000000	      0.0000000
      0.0000000	      0.0000000	      0.0000000
      0.0000000	      0.0000000	      0.0000000
      0.0000000	      0.0000000	      0.0000000
      0.0000000	      0.0000000	      0.0000000
      0.0000000	      0.0000000	      0.0000000
      0.0000000	      0.0000000	      0.0000000
      0.0000000	      0.0000000	      0.0000000
      0.0000000	      0.0000000	      0.0000000
      0.0000000	      0.0000000	      0.0000000
      0.0000000	      0.0000000	      0.0000000
      0.0000000	      0.0000000	      0.0000000
      0.0000000	      0.0000000	      0.0000000
      0.0000000	      0.0000000	      0.0000000
      0.0000000	      0.0000000	      0.0000000
      0.0000000	      0.0000000	      0.0000000
      0.0000000	      0.0000000	      0.0000000
      0.0000000	      0.0000000	      0.0000000
      0.0000000	      0.0000000	      0.0000000
      0.0000000	      0.0000000	      0.0000000
      0.0000000	      0.0000000	      0.0000000
      0.0000000	      0.0000000	      0.0000000
      0.0000000	      0.0000000	      0.0000000
      0.0000000	      0.0000000	      0.0000000
      0.0000000	      0.0000000	      0.0000000
      0.0000000	      0.0000000	      0.0000000
      0.0000000	      0.0000000	      0.0000000
      0.0000000	      0.0000000	      0.0000000
      0.0000000	      0.0000000	      0.0000000
      0.0000000	      0.0000000	      0.0000000
      0.0000000	      0.0000000	      0.0000000
      0.0000000	      0.0000000	      0.0000000
      0.0000000	      0.0000000	      0.0000000
      0.0000000	      0.0000000	      0.0000000
      0.0000000	      0.0000000	      0.0000000
      0.0000000	      0.0000000	      0.0000000
      0.0000000	      0.0000000	      0.0000000
      0.0002708	      0.0001741	      0.0000000
      0.0002767	      0.0003169	      0.0000000
      0.0000357	      0.0004512	      0.0000000
     -0.0003475	      0.0005661	      0.0000000
     -0.0009141	      0.0006554	      0.0000000
     -0.0015775	      0.0007228	      0.0000000
     -0.0023469	      0.0007674	      0.0000000
     -0.0031628	      0.0007964	      0.0000000
     -0.0040275	      0.0008117	      0.0000000
     -0.0049054	      0.0008189	      0.0000000
     -0.0057992	      0.0008195	      0.0000000
     -0.0066898	      0.0008170	      0.0000000
     -0.0075807	      0.0008120	      0.0000000
     -0.0084623	      0.0008061	      0.0000000
     -0.0093377	      0.0007994	      0.0000000
     -0.0102020	      0.0007925	      0.0000000
     -0.0110575	      0.0007854	      0.0000000
     -0.0119015	      0.0007780	      0.0000000
     -0.0127353	      0.0007704	      0.0000000
     -0.0135570	      0.0007626	      0.0000000
     -0.0143672	      0.0007543	      0.0000000
     -0.0151647	      0.0007457	      0.0000000
     -0.0159494	      0.0007367	      0.0000000
     -0.0167204	      0.0007272	      0.0000000
     -0.0174772	      0.0007172	      0.0000000
     -0.0182190	      0.0007067	      0.0000000
     -0.0189453	      0.0006958	      0.0000000
     -0.0196552	      0.0006843	      0.0000000
     -0.0203483	      0.0006723	      0.0000000
     -0.0210236	      0.0006598	      0.0000000
     -0.0216805	      0.0006467	      0.0000000
     -0.0223183	      0.0006331	      0.0000000
     -0.0229362	      0.0006190	      0.0000000
     -0.0235335	      0.0006043	      0.0000000
     -0.0241094	      0.0005891	      0.0000000
     -0.0246633	      0.0005733	      0.0000000
     -0.0251943	      0.0005570	      0.0000000
     -0.0257018	      0.0005401	      0.0000000
     -0.0261850	      0.0005227	      0.0000000
     -0.0266431	      0.0005047	      0.0000000
     -0.0270754	      0.0004862	      0.0000000
     -0.0274812	      0.0004672	      0.0000000
     -0.0278597	      0.0004476	      0.0000000
     -0.0282103	      0.0004275	      0.0000000
     -0.0285322	      0.0004069	      0.0000000
     -0.0288247	      0.0003857	      0.0000000
     -0.0290871	      0.0003641	      0.0000000
     -0.0293187	      0.0003420	      0.0000000
     -0.0295190	      0.0003194	      0.0000000
     -0.0296872	      0.0002963	      0.0000000
     -0.0298227	      0.0002728	      0.0000000
     -0.0299250	      0.0002489	      0.0000000
     -0.0299935	      0.0002246	      0.0000000
     -0.0300277	      0.0002000	      0.0000000
     -0.0300270	      0.0001750	      0.0000000
     -0.0299911	      0.0001496	      0.0000000
     -0.0299195	      0.0001240	      0.0000000
     -0.0298117	      0.0000980	      0.0000000
     -0.0296674	      0.0000718	      0.0000000
     -0.0294861	      0.0000454	      0.0000000
     -0.0292677	      0.0000187	      0.0000000
     -0.0290118	     -0.0000081	      0.0000000
     -0.0287184	     -0.0000349	      0.0000000
     -0.0283873	     -0.0000618	      0.0000000
     -0.0280185	     -0.0000888	      0.0000000
     -0.0276120	     -0.0001156	      0.0000000
     -0.0271679	     -0.0001424	      0.0000000
     -0.0266864	     -0.0001690	      0.0000000
     -0.0261677	     -0.0001954	      0.0000000
     -0.0256121	     -0.0002215	      0.0000000
     -0.0250200	     -0.0002474	      0.0000000
     -0.0243917	     -0.0002729	      0.0000000
     -0.0237279	     -0.0002980	      0.0000000
     -0.0230291	     -0.0003226	      0.0000000
     -0.0222960	     -0.0003466	      0.0000000
     -0.0215293	     -0.0003701	      0.0000000
     -0.0207299	     -0.0003930	      0.0000000
     -0.0198987	     -0.0004151	      0.0000000
     -0.0190366	     -0.0004366	      0.0000000
     -0.0181448	     -0.0004572	      0.0000000
     -0.0172240	     -0.0004771	      0.0000000
     -0.0162760	     -0.0004961	      0.0000000
     -0.0153013	     -0.0005142	      0.0000000
     -0.0143022	     -0.0005313	      0.0000000
     -0.0132789	     -0.0005474	      0.0000000
     -0.0122348	     -0.0005623	      0.0000000
     -0.0111698	     -0.0005760	      0.0000000
     -0.0100895	     -0.0005875	      0.0000000
     -0.0089940	     -0.0005967	      0.0000000
     -0.0078930	     -0.0006018	      0.0000000
     -0.0067881	     -0.0006019	      0.0000000
     -0.0056973	     -0.0005934	      0.0000000
     -0.0046255	     -0.0005747	      0.0000000
     -0.0036040	     -0.0005395	      0.0000000
     -0.0026433	     -0.0004860	      0.0000000
     -0.0017916	     -0.0004053	      0.0000000
     -0.0010644	     -0.0003009	      0.0000000
     -0.0005187	     -0.0001653	      0.0000000
     -0.0001620	     -0.0000310	      0.0000000
     -0.0000067	      0.0000793	      0.0000000
      0.0000000	      0.0000000	      0.0000000
      0.0000000	      0.0000000	      0.0000000
      0.0002363	      0.0003039	      0.0000000
      0.0000969	      0.0006853	      0.0000000
     -0.0004008	      0.0010609	      0.0000000
     -0.0011551	      0.0014004	      0.0000000
     -0.0022003	      0.0016727	      0.0000000
     -0.0034252	      0.0018839	      0.0000000
     -0.0048274	      0.0020318	      0.0000000
     -0.0063238	      0.0021319	      0.0000000
     -0.0079063	      0.0021910	      0.0000000
     -0.0095229	      0.0022227	      0.0000000
     -0.0111697	      0.0022333	      0.0000000
     -0.0128179	      0.0022314	      0.0000000
     -0.0144678	      0.0022206	      0.0000000
     -0.0161047	      0.0022051	      0.0000000
     -0.0177305	      0.0021862	      0.0000000
     -0.0193377	      0.0021657	      0.0000000
     -0.0209282	      0.0021436	      0.0000000
     -0.0224977	      0.0021206	      0.0000000
     -0.0240473	      0.0020965	      0.0000000
     -0.0255743	      0.0020713	      0.0000000
     -0.0270788	      0.0020449	      0.0000000
     -0.0285589	      0.0020173	      0.0000000
     -0.0300141	      0.0019884	      0.0000000
     -0.0314427	      0.0019581	      0.0000000
     -0.0328438	      0.0019263	      0.0000000
     -0.0342160	      0.0018930	      0.0000000
     -0.0355582	      0.0018582	      0.0000000
     -0.0368690	      0.0018218	      0.0000000
     -0.0381471	      0.0017839	      0.0000000
     -0.0393911	      0.0017444	      0.0000000
     -0.0405998	      0.0017032	      0.0000000
     -0.0417719	      0.0016605	      0.0000000
     -0.0429059	      0.0016161	      0.0000000
     -0.0440006	      0.0015701	      0.0000000
     -0.0450546	      0.0015225	      0.0000000
     -0.0460666	      0.0014733	      0.0000000
     -0.0470353	      0.0014224	      0.0000000
     -0.0479593	      0.0013699	      0.0000000
     -0.0488373	      0.0013158	      0.0000000
     -0.0496680	      0.0012601	      0.0000000
     -0.0504501	      0.0012027	      0.0000000
     -0.0511823	      0.0011438	      0.0000000
     -0.0518633	      0.0010833	      0.0000000
     -0.0524919	      0.0010212	      0.0000000
     -0.0530669	      0.0009576	      0.0000000
     -0.0535869	      0.0008925	      0.0000000
     -0.0540510	      0.0008260	      0.0000000
     -0.0544578	      0.0007580	      0.0000000
     -0.0548062	      0.0006886	      0.0000000
     -0.0550952	      0.0006179	      0.0000000
     -0.0553238	      0.0005459	      0.0000000
     -0.0554909	      0.0004727	      0.0000000
     -0.0555957	      0.0003983	      0.0000000
     -0.0556372	      0.0003229	      0.0000000
     -0.0556146	      0.0002465	      0.0000000
     -0.0555272	      0.0001691	      0.0000000
     -0.0553742	      0.0000908	      0.0000000
     -0.0551549	      0.0000117	      0.0000000
     -0.0548688	     -0.0000683	      0.0000000
     -0.0545152	     -0.0001488	      0.0000000
     -0.0540939	     -0.0002299	      0.0000000
     -0.0536046	     -0.0003113	      0.0000000
     -0.0530470	     -0.0003929	      0.0000000
     -0.0524211	     -0.0004746	      0.0000000
     -0.0517269	     -0.0005563	      0.0000000
     -0.0509645	     -0.0006378	      0.0000000
     -0.0501341	     -0.0007190	      0.0000000
     -0.0492362	     -0.0007997	      0.0000000
     -0.0482711	     -0.0008798	      0.0000000
     -0.0472395	     -0.0009592	      0.0000000
     -0.0461421	     -0.0010376	      0.0000000
     -0.0449798	     -0.0011149	      0.0000000
     -0.0437535	     -0.0011909	      0.0000000
     -0.0424644	     -0.0012655	      0.0000000
     -0.0411137	     -0.0013385	      0.0000000
     -0.0397029	     -0.0014098	      0.0000000
     -0.0382334	     -0.0014791	      0.0000000
     -0.0367069	     -0.0015464	      0.0000000
     -0.0351251	     -0.0016114	      0.0000000
     -0.0334902	     -0.0016741	      0.0000000
     -0.0318037	     -0.0017343	      0.0000000
     -0.0300685	     -0.0017917	      0.0000000
     -0.0282859	     -0.0018464	      0.0000000
     -0.0264599	     -0.0018979	      0.0000000
     -0.0245916	     -0.0019461	      0.0000000
     -0.0226866	     -0.0019899	      0.0000000
     -0.0207463	     -0.0020289	      0.0000000
     -0.0187796	     -0.0020608	      0.0000000
     -0.0167894	     -0.0020839	      0.0000000
     -0.0147912	     -0.0020934	      0.0000000
     -0.0127914	     -0.0020855	      0.0000000
     -0.0108183	     -0.0020512	      0.0000000
     -0.0088849	     -0.0019844	      0.0000000
     -0.0070390	     -0.0018701	      0.0000000
     -0.0053025	     -0.0017031	      0.0000000
     -0.0037465	     -0.0014643	      0.0000000
     -0.0023956	     -0.0011623	      0.0000000
     -0.0013343	     -0.0007846	      0.0000000
     -0.0005658	     -0.0003995	      0.0000000
     -0.0001418	     -0.0000428	      0.0000000
      0.0000000	      0.0000000	      0.0000000
      0.0000000	      0.0000000	      0.0000000
      0.0001454	      0.0005160	      0.0000000
     -0.0001741	      0.0012563	      0.0000000
     -0.0009520	      0.0019900	      0.0000000
     -0.0020613	      0.0026629	      0.0000000
     -0.0035370	      0.0032119	      0.0000000
     -0.0052494	      0.0036426	      0.0000000
     -0.0071891	      0.0039521	      0.0000000
     -0.0092583	      0.0041651	      0.0000000
     -0.0114409	      0.0042966	      0.0000000
     -0.0136747	      0.0043701	      0.0000000
     -0.0159498	      0.0044000	      0.0000000
     -0.0182313	      0.0044017	      0.0000000
     -0.0205157	      0.0043837	      0.0000000
     -0.0227852	      0.0043541	      0.0000000
     -0.0250395	      0.0043165	      0.0000000
     -0.0272696	      0.0042742	      0.0000000
     -0.0294760	      0.0042282	      0.0000000
     -0.0316536	      0.0041795	      0.0000000
     -0.0338028	      0.0041282	      0.0000000
     -0.0359202	      0.0040744	      0.0000000
     -0.0380053	      0.0040180	      0.0000000
     -0.0400556	      0.0039590	      0.0000000
     -0.0420701	      0.0038970	      0.0000000
     -0.0440467	      0.0038322	      0.0000000
     -0.0459838	      0.0037643	      0.0000000
     -0.0478796	      0.0036933	      0.0000000
     -0.0497324	      0.0036192	      0.0000000
     -0.0515403	      0.0035418	      0.0000000
     -0.0533015	      0.0034612	      0.0000000
     -0.0550143	      0.0033774	      0.0000000
     -0.0566768	      0.0032903	      0.0000000
     -0.0582871	      0.0031999	      0.0000000
     -0.0598435	      0.0031062	      0.0000000
     -0.0613441	      0.0030091	      0.0000000
     -0.0627872	      0.0029088	      0.0000000
     -0.0641709	      0.0028052	      0.0000000
     -0.0654935	      0.0026983	      0.0000000
     -0.0667531	      0.0025881	      0.0000000
     -0.0679480	      0.0024747	      0.0000000
     -0.0690765	      0.0023580	      0.0000000
     -0.0701368	      0.0022381	      0.0000000
     -0.0711272	      0.0021151	      0.0000000
     -0.0720461	      0.0019889	      0.0000000
     -0.0728918	      0.0018596	      0.0000000
     -0.0736626	      0.0017273	      0.0000000
     -0.0743571	      0.0015920	      0.0000000
     -0.0749737	      0.0014538	      0.0000000
     -0.0755108	      0.0013128	      0.0000000
     -0.0759671	      0.0011691	      0.0000000
     -0.0763411	      0.0010227	      0.0000000
     -0.0766316	      0.0008738	      0.0000000
     -0.0768372	      0.0007226	      0.0000000
     -0.0769568	      0.0005691	      0.0000000
     -0.0769892	      0.0004135	      0.0000000
     -0.0769335	      0.0002560	      0.0000000
     -0.0767887	      0.0000967	      0.0000000
     -0.0765538	     -0.0000645	      0.0000000
     -0.0762281	     -0.0002272	      0.0000000
     -0.0758109	     -0.0003913	      0.0000000
     -0.0753016	     -0.0005566	      0.0000000
     -0.0747000	     -0.0007226	      0.0000000
     -0.0740056	     -0.0008893	      0.0000000
     -0.0732183	     -0.0010563	      0.0000000
     -0.0723382	     -0.0012235	      0.0000000
     -0.0713652	     -0.0013904	      0.0000000
     -0.0702998	     -0.0015569	      0.0000000
     -0.0691422	     -0.0017226	      0.0000000
     -0.0678931	     -0.0018874	      0.0000000
     -0.0665532	     -0.0020507	      0.0000000
     -0.0651233	     -0.0022125	      0.0000000
     -0.0636046	     -0.0023722	      0.0000000
     -0.0619982	     -0.0025297	      0.0000000
     -0.0603055	     -0.0026845	      0.0000000
     -0.0585282	     -0.0028364	      0.0000000
     -0.0566679	     -0.0029851	      0.0000000
     -0.0547266	     -0.0031301	      0.0000000
     -0.0527063	     -0.0032712	      0.0000000
     -0.0506095	     -0.0034081	      0.0000000
     -0.0484384	     -0.0035404	      0.0000000
     -0.0461958	     -0.0036679	      0.0000000
     -0.0438841	     -0.0037902	      0.0000000
     -0.0415071	     -0.0039070	      0.0000000
     -0.0390669	     -0.0040179	      0.0000000
     -0.0365685	     -0.0041222	      0.0000000
     -0.0340143	     -0.0042191	      0.0000000
     -0.0314111	     -0.0043070	      0.0000000
     -0.0287620	     -0.0043840	      0.0000000
     -0.0260784	     -0.0044460	      0.0000000
     -0.0233653	     -0.0044885	      0.0000000
     -0.0206424	     -0.0045028	      0.0000000
     -0.0179201	     -0.0044802	      0.0000000
     -0.0152332	     -0.0044043	      0.0000000
     -0.0126006	     -0.0042616	      0.0000000
     -0.0100808	     -0.0040274	      0.0000000
     -0.0077023	     -0.0036892	      0.0000000
     -0.0055522	     -0.0032190	      0.0000000
     -0.0036595	     -0.0026276	      0.0000000
     -0.0021330	     -0.0019036	      0.0000000
     -0.0009723	     -0.0011421	      0.0000000
     -0.0002852	     -0.0003974	      0.0000000
      0.0000000	      0.0000000	      0.0000000
      0.0000000	      0.0000000	      0.0000000
      0.0000290	      0.0009109	      0.0000000
     -0.0004879	      0.0020846	      0.0000000
     -0.0015445	      0.0032357	      0.0000000
     -0.0029797	      0.0042876	      0.0000000
     -0.0048305	      0.0051539	      0.0000000
     -0.0069531	      0.0058382	      0.0000000
     -0.0093361	      0.0063377	      0.0000000
     -0.0118721	      0.0066859	      0.0000000
     -0.0145412	      0.0069064	      0.0000000
     -0.0172743	      0.0070333	      0.0000000
     -0.0200578	      0.0070895	      0.0000000
     -0.0228524	      0.0070983	      0.0000000
     -0.0256518	      0.0070739	      0.0000000
     -0.0284354	      0.0070286	      0.0000000
     -0.0312012	      0.0069690	      0.0000000
     -0.0339386	      0.0069002	      0.0000000
     -0.0366469	      0.0068244	      0.0000000
     -0.0393202	      0.0067434	      0.0000000
     -0.0419579	      0.0066576	      0.0000000
     -0.0445561	      0.0065673	      0.0000000
     -0.0471136	      0.0064724	      0.0000000
     -0.0496276	      0.0063728	      0.0000000
     -0.0520964	      0.0062684	      0.0000000
     -0.0545174	      0.0061591	      0.0000000
     -0.0568888	      0.0060447	      0.0000000
     -0.0592081	      0.0059252	      0.0000000
     -0.0614734	      0.0058005	      0.0000000
     -0.0636821	      0.0056705	      0.0000000
     -0.0658323	      0.0055352	      0.0000000
     -0.0679217	      0.0053945	      0.0000000
     -0.0699480	      0.0052485	      0.0000000
     -0.0719090	      0.0050972	      0.0000000
     -0.0738026	      0.0049405	      0.0000000
     -0.0756266	      0.0047784	      0.0000000
     -0.0773787	      0.0046110	      0.0000000
     -0.0790568	      0.0044383	      0.0000000
     -0.0806588	      0.0042603	      0.0000000
     -0.0821826	      0.0040770	      0.0000000
     -0.0836260	      0.0038885	      0.0000000
     -0.0849870	      0.0036948	      0.0000000
     -0.0862637	      0.0034960	      0.0000000
     -0.0874538	      0.0032922	      0.0000000
     -0.0885556	      0.0030833	      0.0000000
     -0.0895671	      0.0028696	      0.0000000
     -0.0904864	      0.0026510	      0.0000000
     -0.0913116	      0.0024278	      0.0000000
     -0.0920410	      0.0022000	      0.0000000
     -0.0926729	      0.0019677	      0.0000000
     -0.0932056	      0.0017312	      0.0000000
     -0.0936375	      0.0014905	      0.0000000
     -0.0939671	      0.0012460	      0.0000000
     -0.0941930	      0.0009977	      0.0000000
     -0.0943138	      0.0007459	      0.0000000
     -0.0943283	      0.0004909	      0.0000000
     -0.0942352	      0.0002329	      0.0000000
     -0.0940336	     -0.0000280	      0.0000000
     -0.0937224	     -0.0002915	      0.0000000
     -0.0933008	     -0.0005574	      0.0000000
     -0.0927682	     -0.0008253	      0.0000000
     -0.0921241	     -0.0010947	      0.0000000
     -0.0913681	     -0.0013652	      0.0000000
     -0.0905000	     -0.0016366	      0.0000000
     -0.0895197	     -0.0019084	      0.0000000
     -0.0884272	     -0.0021801	      0.0000000
     -0.0872228	     -0.0024514	      0.0000000
     -0.0859069	     -0.0027218	      0.0000000
     -0.0844800	     -0.0029909	      0.0000000
     -0.0829430	     -0.0032581	      0.0000000
     -0.0812968	     -0.0035231	      0.0000000
     -0.0795425	     -0.0037852	      0.0000000
     -0.0776815	     -0.0040441	      0.0000000
     -0.0757152	     -0.0042991	      0.0000000
     -0.0736455	     -0.0045499	      0.0000000
     -0.0714743	     -0.0047957	      0.0000000
     -0.0692037	     -0.0050362	      0.0000000
     -0.0668361	     -0.0052708	      0.0000000
     -0.0643740	     -0.0054990	      0.0000000
     -0.0618203	     -0.0057202	      0.0000000
     -0.0591778	     -0.0059341	      0.0000000
     -0.0564499	     -0.0061399	      0.0000000
     -0.0536397	     -0.0063374	      0.0000000
     -0.0507514	     -0.0065257	      0.0000000
     -0.0477882	     -0.0067043	      0.0000000
     -0.0447557	     -0.0068718	      0.0000000
     -0.0416573	     -0.0070269	      0.0000000
     -0.0385012	     -0.0071669	      0.0000000
     -0.0352917	     -0.0072884	      0.0000000
     -0.0320419	     -0.0073849	      0.0000000
     -0.0287589	     -0.0074491	      0.0000000
     -0.0254652	     -0.0074675	      0.0000000
     -0.0221738	     -0.0074257	      0.0000000
     -0.0189241	     -0.0072999	      0.0000000
     -0.0157381	     -0.0070684	      0.0000000
     -0.0126814	     -0.0066963	      0.0000000
     -0.0097849	     -0.0061632	      0.0000000
     -0.0071471	     -0.0054320	      0.0000000
     -0.0047966	     -0.0045125	      0.0000000
     -0.0028655	     -0.0033924	      0.0000000
     -0.0013504	     -0.0021783	      0.0000000
     -0.0004184	     -0.0009343	      0.0000000
      0.0000000	      0.0000000	      0.0000000
      0.0000000	      0.0000000	      0.0000000
     -0.0000661	      0.0014391	      0.0000000
     -0.0007548	      0.0031334	      0.0000000
     -0.0020605	      0.0047678	      0.0000000
     -0.0037798	      0.0062484	      0.0000000
     -0.0059524	      0.0074732	      0.0000000
     -0.0084183	      0.0084439	      0.0000000
     -0.0111667	      0.0091599	      0.0000000
     -0.0140820	      0.0096636	      0.0000000
     -0.0171431	      0.0099880	      0.0000000
     -0.0202759	      0.0101784	      0.0000000
     -0.0234652	      0.0102672	      0.0000000
     -0.0266682	      0.0102860	      0.0000000
     -0.0298773	      0.0102553	      0.0000000
     -0.0330695	      0.0101925	      0.0000000
     -0.0362420	      0.0101074	      0.0000000
     -0.0393825	      0.0100073	      0.0000000
     -0.0424898	      0.0098961	      0.0000000
     -0.0455569	      0.0097762	      0.0000000
     -0.0485827	      0.0096486	      0.0000000
     -0.0515626	      0.0095138	      0.0000000
     -0.0544951	      0.0093719	      0.0000000
     -0.0573766	      0.0092229	      0.0000000
     -0.0602053	      0.0090666	      0.0000000
     -0.0629781	      0.0089029	      0.0000000
     -0.0656928	      0.0087318	      0.0000000
     -0.0683465	      0.0085530	      0.0000000
     -0.0709370	      0.0083665	      0.0000000
     -0.0734614	      0.0081723	      0.0000000
     -0.0759174	      0.0079704	      0.0000000
     -0.0783024	      0.0077606	      0.0000000
     -0.0806138	      0.0075431	      0.0000000
     -0.0828492	      0.0073177	      0.0000000
     -0.0850060	      0.0070846	      0.0000000
     -0.0870818	      0.0068437	      0.0000000
     -0.0890741	      0.0065951	      0.0000000
     -0.0909805	      0.0063388	      0.0000000
     -0.0927986	      0.0060749	      0.0000000
     -0.0945261	      0.0058034	      0.0000000
     -0.0961605	      0.0055244	      0.0000000
     -0.0976997	      0.0052379	      0.0000000
     -0.0991413	      0.0049442	      0.0000000
     -0.1004832	      0.0046433	      0.0000000
     -0.1017231	      0.0043352	      0.0000000
     -0.1028590	      0.0040202	      0.0000000
     -0.1038888	      0.0036983	      0.0000000
     -0.1048105	      0.0033699	      0.0000000
     -0.1056222	      0.0030349	      0.0000000
     -0.1063219	      0.0026937	      0.0000000
     -0.1069079	      0.0023465	      0.0000000
     -0.1073784	      0.0019934	      0.0000000
     -0.1077319	      0.0016349	      0.0000000
     -0.1079668	      0.0012712	      0.0000000
     -0.1080816	      0.0009025	      0.0000000
     -0.1080749	      0.0005294	      0.0000000
     -0.1079456	      0.0001520	      0.0000000
     -0.1076925	     -0.0002293	      0.0000000
     -0.1073146	     -0.0006142	      0.0000000
     -0.1068112	     -0.0010021	      0.0000000
     -0.1061817	     -0.0013925	      0.0000000
     -0.1054256	     -0.0017850	      0.0000000
     -0.1045425	     -0.0021789	      0.0000000
     -0.1035324	     -0.0025737	      0.0000000
     -0.1023951	     -0.0029689	      0.0000000
     -0.1011308	     -0.0033638	      0.0000000
     -0.0997399	     -0.0037579	      0.0000000
     -0.0982230	     -0.0041505	      0.0000000
     -0.0965807	     -0.0045409	      0.0000000
     -0.0948140	     -0.0049286	      0.0000000
     -0.0929239	     -0.0053128	      0.0000000
     -0.0909120	     -0.0056928	      0.0000000
     -0.0887797	     -0.0060678	      0.0000000
     -0.0865289	     -0.0064373	      0.0000000
     -0.0841615	     -0.0068003	      0.0000000
     -0.0816798	     -0.0071562	      0.0000000
     -0.0790863	     -0.0075042	      0.0000000
     -0.0763837	     -0.0078435	      0.0000000
     -0.0735747	     -0.0081735	      0.0000000
     -0.0706629	     -0.0084934	      0.0000000
     -0.0676512	     -0.0088025	      0.0000000
     -0.0645437	     -0.0091000	      0.0000000
     -0.0613439	     -0.0093851	      0.0000000
     -0.0580565	     -0.0096568	      0.0000000
     -0.0546853	     -0.0099140	      0.0000000
     -0.0512366	     -0.0101550	      0.0000000
     -0.0477144	     -0.0103775	      0.0000000
     -0.0441280	     -0.0105775	      0.0000000
     -0.0404824	     -0.0107500	      0.0000000
     -0.0367921	     -0.0108860	      0.0000000
     -0.0330653	     -0.0109744	      0.0000000
     -0.0293268	     -0.0109967	      0.0000000
     -0.0255905	     -0.0109326	      0.0000000
     -0.0218994	     -0.0107497	      0.0000000
     -0.0182764	     -0.0104177	      0.0000000
     -0.0147927	     -0.0098909	      0.0000000
     -0.0114794	     -0.0091394	      0.0000000
     -0.0084454	     -0.0081172	      0.0000000
     -0.0057186	     -0.0068282	      0.0000000
     -0.0034538	     -0.0052584	      0.0000000
     -0.0016464	     -0.0035125	      0.0000000
     -0.0005182	     -0.0016574	      0.0000000
      0.0000000	      0.0000000	      0.0000000
      0.0000000	      0.0000000	      0.0000000
     -0.0001444	      0.0020983	      0.0000000
     -0.0009798	      0.0043834	      0.0000000
     -0.0024975	      0.0065464	      0.0000000
     -0.0044556	      0.0084816	      0.0000000
     -0.0068945	      0.0100832	      0.0000000
     -0.0096391	      0.0113529	      0.0000000
     -0.0126799	      0.0122953	      0.0000000