# vtk DataFile Version 2.0
vw
ASCII
DATASET STRUCTURED_POINTS
DIMENSIONS  102  102    1
ORIGIN      0.0000000      0.0000000      0.0000000
SPACING      0.0100000      0.0100000      0.0100000
POINT_DATA  10404
VECTORS velocity float
      0.0000000	      0.0000000	      0.0000000
      0.0000000	      0.0000000	      0.0000000
      0.0000000	      0.0000000	      0.0000000
      0.0000000	      0.0000000	      0.0000000
      0.0000000	      0.0000000	      0.0000000
      0.0000000	      0.0000000	      0.0000000
      0.0000000	      0.0000000	      0.0000000
      0.0000000	      0.0000000	      0.0000000
      0.0000000	      0.0000000	      0.0000000
      0.0000000	      0.0000000	      0.0000000
      0.0000000	      0.0000000	      0.0000000
      0.0000000	      0.0000000	      0.0000000
      0.0000000	      0.0000000	      0.0000000
      0.0000000	      0.0000000	      0.0000000
      0.0000000	      0.0000000	      0.0000000
      0.0000000	      0.0000000	      0.0000000
      0.0000000	      0.0000000	      0.0000000
      0.0000000	      0.0000000	      0.0000000
      0.0000000	      0.0000000	      0.0000000
      0.0000000	      0.0000000	      0.0000000
      0.0000000	      0.0000000	      0.0000000
      0.0000000	      0.0000000	      0.0000000
      0.0000000	      0.0000000	      0.0000000
      0.0000000	      0.0000000	      0.0000000
      0.0000000	      0.0000000	      0.0000000
      0.0000000	      0.0000000	      0.0000000
      0.0000000	      0.0000000	      0.0000000
      0.0000000	      0.0000000	      0.0000000
      0.0000000	      0.0000000	      0.0000000
      0.0000000	      0.0000000	      0.0000000
      0.0000000	      0.0000000	      0.0000000
      0.0000000	      0.0000000	      0.0000000
      0.0000000	      0.0000000	      0.0000000
      0.0000000	      0.0000000	      0.0000000
      0.0000000	      0.0000000	      0.0000000
      0.0000000	      0.0000000	      0.0000000
      0.0000000	      0.0000000	      0.0000000
      0.0000000	      0.0000000	      0.0000000
      0.0000000	      0.0000000	      0.0000000
      0.0000000	      0.0000000	      0.0000000
      0.0000000	      0.0000000	      0.0000000
      0.0000000	      0.0000000	      0.0000000
      0.0000000	      0.0000000	      0.0000000
      0.0000000	      0.0000000	      0.0000000
      0.0000000	      0.0000000	      0.0000000
      0.0000000	      0.0000000	      0.0000000
      0.0000000	      0.0000000	      0.0000000
      0.0000000	      0.0000000	      0.0000000
      0.0000000	      0.0000000	      0.0000000
      0.0000000	      0.0000000	      0.0000000
      0.0000000	      0.0000000	      0.0000000
      0.0000000	      0.0000000	      0.0000000
      0.0000000	      0.0000000	      0.0000000
      0.0000000	      0.0000000	      0.0000000
      0.0000000	      0.0000000	      0.0000000
      0.0000000	      0.0000000	      0.0000000
      0.0000000	      0.0000000	      0.0000000
      0.0000000	      0.0000000	      0.0000000
      0.0000000	      0.0000000	      0.0000000
      0.0000000	      0.0000000	      0.0000000
      0.0000000	      0.0000000	      0.0000000
      0.0000000	      0.0000000	      0.0000000
      0.0000000	      0.0000000	      0.0000000
      0.0000000	      0.0000000	      0.0000000
      0.0000000	      0.0000000	      0.0000000
      0.0000000	      0.0000000	      0.0000000
      0.0000000	      0.0000000	      0.0000000
      0.0000000	      0.0000000	      0.0000000
      0.0000000	      0.0000000	      0.0000000
      0.0000000	      0.0000000	      0.0000000
      0.0000000	      0.0000000	      0.0000000
      0.0000000	      0.0000000	      0.0000000
      0.0000000	      0.0000000	      0.0000000
      0.0000000	      0.0000000	      0.0000000
      0.0000000	      0.0000000	      0.0000000
      0.0000000	      0.0000000	      0.0000000
      0.0000000	      0.0000000	      0.0000000
      0.0000000	      0.0000000	      0.0000000
      0.0000000	      0.0000000	      0.0000000
      0.0000000	      0.0000000	      0.0000000
      0.0000000	      0.0000000	      0.0000000
      0.0000000	      0.0000000	      0.0000000
      0.0000000	      0.0000000	      0.0000000
      0.0000000	      0.0000000	      0.0000000
      0.0000000	      0.0000000	      0.0000000
      0.0000000	      0.0000000	      0.0000000
      0.0000000	      0.0000000	      0.0000000
      0.0000000	      0.0000000	      0.0000000
      0.0000000	      0.0000000	      0.0000000
      0.0000000	      0.0000000	      0.0000000
      0.0000000	      0.0000000	      0.0000000
      0.0000000	      0.0000000	      0.0000000
      0.0000000	      0.0000000	      0.0000000
      0.0000000	      0.0000000	      0.0000000
      0.0000000	      0.0000000	      0.0000000
      0.0000000	      0.0000000	      0.0000000
      0.0000000	      0.0000000	      0.0000000
      0.0000000	      0.0000000	      0.0000000
      0.0000000	      0.0000000	      0.0000000
      0.0000000	      0.0000000	      0.0000000
      0.0000000	      0.0000000	      0.0000000
      0.0000000	      0.0000000	      0.0000000
      0.0000000	      0.0000000	      0.0000000
     -0.0118154	     -0.0156020	      0.0000000
     -0.0136874	     -0.0225830	      0.0000000
     -0.0045210	     -0.0261845	      0.0000000
      0.0049995	     -0.0276923	      0.0000000
      0.0163971	     -0.0277983	      0.0000000
      0.0270566	     -0.0269830	      0.0000000
      0.0365245	     -0.0255578	      0.0000000
      0.0440320	     -0.0237945	      0.0000000
      0.0493542	     -0.0219014	      0.0000000
      0.0524032	     -0.0200388	      0.0000000
      0.0532941	     -0.0183115	      0.0000000
      0.0522315	     -0.0167754	      0.0000000
      0.0494704	     -0.0154433	      0.0000000
      0.0452620	     -0.0142962	      0.0000000
      0.0398236	     -0.0132951	      0.0000000
      0.0333212	     -0.0123936	      0.0000000
      0.0258677	     -0.0115465	      0.0000000
      0.0175241	     -0.0107150	      0.0000000
      0.0083094	     -0.0098711	      0.0000000
     -0.0017823	     -0.0089980	      0.0000000
     -0.0127716	     -0.0080904	      0.0000000
     -0.0246806	     -0.0071499	      0.0000000
     -0.0375344	     -0.0061783	      0.0000000
     -0.0513486	     -0.0051816	      0.0000000
     -0.0661250	     -0.0041719	      0.0000000
     -0.0818519	     -0.0031609	      0.0000000
     -0.0985049	     -0.0021601	      0.0000000
     -0.1160455	     -0.0011807	      0.0000000
     -0.1344250	     -0.0002335	      0.0000000
     -0.1535782	      0.0006666	      0.0000000
     -0.1734257	      0.0015051	      0.0000000
     -0.1938796	      0.0022709	      0.0000000
     -0.2148411	      0.0029533	      0.0000000
     -0.2362023	      0.0035417	      0.0000000
     -0.2578464	      0.0040257	      0.0000000
     -0.2796489	      0.0043954	      0.0000000
     -0.3014781	      0.0046413	      0.0000000
     -0.3231958	      0.0047547	      0.0000000
     -0.3446585	      0.0047274	      0.0000000
     -0.3657181	      0.0045522	      0.0000000
     -0.3862228	      0.0042226	      0.0000000
     -0.4060177	      0.0037331	      0.0000000
     -0.4249460	      0.0030791	      0.0000000
     -0.4428495	      0.0022569	      0.0000000
     -0.4595690	      0.0012643	      0.0000000
     -0.4749479	      0.0001007	      0.0000000
     -0.4888278	     -0.0012290	      0.0000000
     -0.5010572	     -0.0027179	      0.0000000
     -0.5114979	     -0.0043664	      0.0000000
     -0.5200018	     -0.0061980	      0.0000000
     -0.5263970	     -0.0082314	      0.0000000
     -0.5305016	     -0.0104544	      0.0000000
     -0.5321587	     -0.0128457	      0.0000000
     -0.5312341	     -0.0153838	      0.0000000
     -0.5276143	     -0.0180464	      0.0000000
     -0.5212070	     -0.0208100	      0.0000000
     -0.5119423	     -0.0236492	      0.0000000
     -0.4997743	     -0.0265355	      0.0000000
     -0.4846837	     -0.0294374	      0.0000000
     -0.4666811	     -0.0323200	      0.0000000
     -0.4458100	     -0.0351452	      0.0000000
     -0.4221498	     -0.0378717	      0.0000000
     -0.3958195	     -0.0404553	      0.0000000
     -0.3669797	     -0.0428499	      0.0000000
     -0.3358355	     -0.0450080	      0.0000000
     -0.3026380	     -0.0468817	      0.0000000
     -0.2676853	     -0.0484239	      0.0000000
     -0.2313215	     -0.0495900	      0.0000000
     -0.1939357	     -0.0503393	      0.0000000
     -0.1559584	     -0.0506369	      0.0000000
     -0.1178567	     -0.0504557	      0.0000000
     -0.0801267	     -0.0497782	      0.0000000
     -0.0432849	     -0.0485994	      0.0000000
     -0.0078538	     -0.0469280	      0.0000000
      0.0256462	     -0.0447941	      0.0000000
      0.0567281	     -0.0422425	      0.0000000
      0.0849467	     -0.0393170	      0.0000000
      0.1099052	     -0.0360867	      0.0000000
      0.1312776	     -0.0326314	      0.0000000
      0.1488249	     -0.0290412	      0.0000000
      0.1624040	     -0.0254111	      0.0000000
      0.1719742	     -0.0218367	      0.0000000
      0.1776005	     -0.0184107	      0.0000000
      0.1794504	     -0.0152177	      0.0000000
      0.1777876	     -0.0123307	      0.0000000
      0.1729583	     -0.0098069	      0.0000000
      0.1653780	     -0.0076849	      0.0000000
      0.1555061	     -0.0059728	      0.0000000
      0.1437985	     -0.0046474	      0.0000000
      0.1306820	     -0.0036768	      0.0000000
      0.1165676	     -0.0030353	      0.0000000
      0.1018490	     -0.0027034	      0.0000000
      0.0868992	     -0.0026655	      0.0000000
      0.0720824	     -0.0029193	      0.0000000
      0.0577585	     -0.0034785	      0.0000000
      0.0443278	     -0.0043742	      0.0000000
      0.0321865	     -0.0056013	      0.0000000
      0.0217733	     -0.0070781	      0.0000000
      0.0133534	     -0.0082059	      0.0000000
      0.0063125	     -0.0078762	      0.0000000
      0.0000000	      0.0000000	      0.0000000
      0.0000000	      0.0000000	      0.0000000
     -0.0128310	     -0.0267320	      0.0000000
     -0.0135281	     -0.0413198	      0.0000000
     -0.0017420	     -0.0497174	      0.0000000
      0.0117491	     -0.0535623	      0.0000000
      0.0278902	     -0.0540729	      0.0000000
      0.0432479	     -0.0522146	      0.0000000
      0.0568528	     -0.0487440	      0.0000000
      0.0674900	     -0.0443290	      0.0000000
      0.0746734	     -0.0395071	      0.0000000
      0.0781654	     -0.0346940	      0.0000000
      0.0780380	     -0.0301708	      0.0000000
      0.0745217	     -0.0260944	      0.0000000
      0.0679435	     -0.0225135	      0.0000000
      0.0586475	     -0.0193940	      0.0000000
      0.0469467	     -0.0166503	      0.0000000
      0.0330946	     -0.0141780	      0.0000000
      0.0172749	     -0.0118711	      0.0000000
     -0.0003933	     -0.0096310	      0.0000000
     -0.0198507	     -0.0073894	      0.0000000
     -0.0410623	     -0.0051072	      0.0000000
     -0.0640224	     -0.0027654	      0.0000000
     -0.0887304	     -0.0003604	      0.0000000
     -0.1151908	      0.0021014	      0.0000000
     -0.1433684	      0.0045893	      0.0000000
     -0.1732220	      0.0070748	      0.0000000
     -0.2046849	      0.0095283	      0.0000000
     -0.2376688	      0.0119193	      0.0000000
     -0.2720621	      0.0142176	      0.0000000
     -0.3077306	      0.0163912	      0.0000000
     -0.3445194	      0.0184068	      0.0000000
     -0.3822557	      0.0202349	      0.0000000
     -0.4207495	      0.0218485	      0.0000000
     -0.4597946	      0.0232221	      0.0000000
     -0.4991710	      0.0243311	      0.0000000
     -0.5386471	      0.0251527	      0.0000000
     -0.5779812	      0.0256653	      0.0000000
     -0.6169240	      0.0258494	      0.0000000
     -0.6552200	      0.0256876	      0.0000000
     -0.6926095	      0.0251643	      0.0000000
     -0.7288304	      0.0242664	      0.0000000
     -0.7636197	      0.0229828	      0.0000000
     -0.7967149	      0.0213049	      0.0000000
     -0.8278558	      0.0192264	      0.0000000
     -0.8567855	      0.0167433	      0.0000000
     -0.8832520	      0.0138544	      0.0000000
     -0.9070095	      0.0105613	      0.0000000
     -0.9278180	      0.0068710	      0.0000000
     -0.9454413	      0.0027946	      0.0000000
     -0.9596501	     -0.0016604	      0.0000000
     -0.9702009	     -0.0065158	      0.0000000
     -0.9769034	     -0.0118056	      0.0000000
     -0.9795394	     -0.0175080	      0.0000000
     -0.9779338	     -0.0235674	      0.0000000
     -0.9719445	     -0.0299317	      0.0000000
     -0.9614599	     -0.0365477	      0.0000000
     -0.9464007	     -0.0433596	      0.0000000
     -0.9267214	     -0.0503073	      0.0000000
     -0.9024122	     -0.0573250	      0.0000000
     -0.8735019	     -0.0643403	      0.0000000
     -0.8400611	     -0.0712738	      0.0000000
     -0.8022056	     -0.0780395	      0.0000000
     -0.7600993	     -0.0845445	      0.0000000
     -0.7139581	     -0.0906907	      0.0000000
     -0.6640522	     -0.0963749	      0.0000000
     -0.6107092	     -0.1014911	      0.0000000
     -0.5543154	     -0.1059324	      0.0000000
     -0.4953173	     -0.1095931	      0.0000000
     -0.4342212	     -0.1123720	      0.0000000
     -0.3715918	     -0.1141756	      0.0000000
     -0.3080493	     -0.1149216	      0.0000000
     -0.2442640	     -0.1145435	      0.0000000
     -0.1809499	     -0.1129944	      0.0000000
     -0.1188541	     -0.1102525	      0.0000000
     -0.0587478	     -0.1063253	      0.0000000
     -0.0013968	     -0.1012594	      0.0000000
      0.0524073	     -0.0951425	      0.0000000
      0.1019737	     -0.0880963	      0.0000000
      0.1466507	     -0.0802519	      0.0000000
      0.1858757	     -0.0717925	      0.0000000
      0.2191925	     -0.0629229	      0.0000000
      0.2462717	     -0.0538640	      0.0000000
      0.2669244	     -0.0448456	      0.0000000
      0.2811151	     -0.0360964	      0.0000000
      0.2889656	     -0.0278321	      0.0000000
      0.2907534	     -0.0202472	      0.0000000
      0.2868998	     -0.0135031	      0.0000000
      0.2779599	     -0.0077235	      0.0000000
      0.2645923	     -0.0029520	      0.0000000
      0.2474994	      0.0008485	      0.0000000
      0.2273860	      0.0037201	      0.0000000
      0.2049848	      0.0056966	      0.0000000
      0.1809973	      0.0068240	      0.0000000
      0.1561037	      0.0071414	      0.0000000
      0.1309681	      0.0066636	      0.0000000
      0.1062315	      0.0053751	      0.0000000
      0.0825683	      0.0032263	      0.0000000
      0.0605813	      0.0002343	      0.0000000
      0.0410186	     -0.0034737	      0.0000000
      0.0241272	     -0.0069380	      0.0000000
      0.0108108	     -0.0087029	      0.0000000
      0.0000000	      0.0000000	      0.0000000
      0.0000000	      0.0000000	      0.0000000
     -0.0121127	     -0.0347250	      0.0000000
     -0.0116226	     -0.0582995	      0.0000000
      0.0014349	     -0.0729457	      0.0000000
      0.0164951	     -0.0800712	      0.0000000
      0.0342084	     -0.0812786	      0.0000000
      0.0508697	     -0.0780462	      0.0000000
      0.0652521	     -0.0717199	      0.0000000
      0.0759252	     -0.0634953	      0.0000000
      0.0822475	     -0.0543700	      0.0000000
      0.0838755	     -0.0451212	      0.0000000
      0.0808215	     -0.0362897	      0.0000000
      0.0732911	     -0.0281918	      0.0000000
      0.0616126	     -0.0209486	      0.0000000
      0.0461484	     -0.0145282	      0.0000000
      0.0272352	     -0.0088020	      0.0000000
      0.0051671	     -0.0035898	      0.0000000
     -0.0198410	      0.0012856	      0.0000000
     -0.0476134	      0.0059804	      0.0000000
     -0.0780125	      0.0106048	      0.0000000
     -0.1109547	      0.0152324	      0.0000000
     -0.1463745	      0.0199002	      0.0000000
     -0.1842099	      0.0246107	      0.0000000
     -0.2243860	      0.0293339	      0.0000000
     -0.2668069	      0.0340219	      0.0000000
     -0.3113543	      0.0386226	      0.0000000
     -0.3578787	      0.0430783	      0.0000000
     -0.4062018	      0.0473299	      0.0000000
     -0.4561164	      0.0513188	      0.0000000
     -0.5073884	      0.0549869	      0.0000000
     -0.5597605	      0.0582780	      0.0000000
     -0.6129552	      0.0611397	      0.0000000
     -0.6666766	      0.0635245	      0.0000000
     -0.7206135	      0.0653885	      0.0000000
     -0.7744426	      0.0666919	      0.0000000
     -0.8278317	      0.0673989	      0.0000000
     -0.8804428	      0.0674781	      0.0000000
     -0.9319353	      0.0669023	      0.0000000
     -0.9819681	      0.0656486	      0.0000000
     -1.0302026	      0.0636987	      0.0000000
     -1.0763047	      0.0610387	      0.0000000
     -1.1199469	      0.0576589	      0.0000000
     -1.1608102	      0.0535541	      0.0000000
     -1.1985852	      0.0487228	      0.0000000
     -1.2329740	      0.0431681	      0.0000000
     -1.2636907	      0.0368966	      0.0000000
     -1.2904628	      0.0299189	      0.0000000
     -1.3130304	      0.0222491	      0.0000000
     -1.3311426	      0.0139022	      0.0000000
     -1.3445733	      0.0048921	      0.0000000
     -1.3530758	     -0.0047903	      0.0000000
     -1.3564298	     -0.0151488	      0.0000000
     -1.3545219	     -0.0261209	      0.0000000
     -1.3472251	     -0.0376147	      0.0000000
     -1.3344588	     -0.0495415	      0.0000000
     -1.3161681	     -0.0618103	      0.0000000
     -1.2923308	     -0.0743253	      0.0000000
     -1.2629583	     -0.0869840	      0.0000000
     -1.2280977	     -0.0996753	      0.0000000
     -1.1878345	     -0.1122785	      0.0000000
     -1.1422952	     -0.1246626	      0.0000000
     -1.0916499	     -0.1366865	      0.0000000
     -1.0361159	     -0.1481992	      0.0000000
     -0.9759601	     -0.1590412	      0.0000000
     -0.9115026	     -0.1690457	      0.0000000
     -0.8431187	     -0.1780408	      0.0000000
     -0.7712420	     -0.1858528	      0.0000000
     -0.6963652	     -0.1923089	      0.0000000
     -0.6190417	     -0.1972420	      0.0000000
     -0.5398853	     -0.2004955	      0.0000000
     -0.4595682	     -0.2019283	      0.0000000
     -0.3788184	     -0.2014215	      0.0000000
     -0.2984149	     -0.1988848	      0.0000000
     -0.2191799	     -0.1942638	      0.0000000
     -0.1419699	     -0.1875482	      0.0000000
     -0.0676664	     -0.1787781	      0.0000000
      0.0028573	     -0.1680683	      0.0000000
      0.0686764	     -0.1555935	      0.0000000
      0.1290187	     -0.1416005	      0.0000000
      0.1831341	     -0.1263561	      0.0000000
      0.2303886	     -0.1101976	      0.0000000
      0.2702662	     -0.0934961	      0.0000000
      0.3023939	     -0.0766483	      0.0000000
      0.3265639	     -0.0600631	      0.0000000
      0.3427462	     -0.0441406	      0.0000000
      0.3510967	     -0.0292562	      0.0000000
      0.3519498	     -0.0157408	      0.0000000
      0.3458332	     -0.0038687	      0.0000000
      0.3333947	      0.0061985	      0.0000000
      0.3154802	      0.0144398	      0.0000000
      0.2929798	      0.0208712	      0.0000000
      0.2667963	      0.0255284	      0.0000000
      0.2378467	      0.0284781	      0.0000000
      0.2070347	      0.0297834	      0.0000000
      0.1752565	      0.0294802	      0.0000000
      0.1433770	      0.0275674	      0.0000000
      0.1123021	      0.0240044	      0.0000000
      0.0828194	      0.0188288	      0.0000000
      0.0560338	      0.0122041	      0.0000000
      0.0322813	      0.0051388	      0.0000000
      0.0140579	     -0.0010142	      0.0000000
      0.0000000	      0.0000000	      0.0000000
      0.0000000	      0.0000000	      0.0000000
     -0.0111784	     -0.0457368	      0.0000000
     -0.0098380	     -0.0778519	      0.0000000
      0.0034745	     -0.0981875	      0.0000000
      0.0182706	     -0.1081370	      0.0000000
      0.0351836	     -0.1095944	      0.0000000
      0.0505008	     -0.1045146	      0.0000000
      0.0629555	     -0.0947938	      0.0000000
      0.0710699	     -0.0821503	      0.0000000
      0.0741543	     -0.0680422	      0.0000000
      0.0718178	     -0.0536164	      0.0000000
      0.0640285	     -0.0396830	      0.0000000
      0.0509505	     -0.0267294	      0.0000000
      0.0328742	     -0.0149579	      0.0000000
      0.0101338	     -0.0043422	      0.0000000
     -0.0169663	      0.0052804	      0.0000000
     -0.0480881	      0.0141189	      0.0000000
     -0.0829365	      0.0223969	      0.0000000
     -0.1212869	      0.0303143	      0.0000000
     -0.1629568	      0.0380300	      0.0000000
     -0.2077965	      0.0456486	      0.0000000
     -0.2556639	      0.0532145	      0.0000000
     -0.3064096	      0.0607213	      0.0000000
     -0.3598654	      0.0681227	      0.0000000
     -0.4158385	      0.0753451	      0.0000000
     -0.4741067	      0.0823041	      0.0000000
     -0.5344153	      0.0889091	      0.0000000
     -0.5964787	      0.0950689	      0.0000000
     -0.6599825	      0.1006944	      0.0000000
     -0.7245870	      0.1057003	      0.0000000
     -0.7899314	      0.1100070	      0.0000000
     -0.8556383	      0.1135418	      0.0000000
     -0.9213172	      0.1162399	      0.0000000
     -0.9865689	      0.1180439	      0.0000000
     -1.0509893	      0.1189041	      0.0000000
     -1.1141740	      0.1187787	      0.0000000
     -1.1757218	      0.1176331	      0.0000000
     -1.2352381	      0.1154408	      0.0000000
     -1.2923380	      0.1121822	      0.0000000
     -1.3466493	      0.1078451	      0.0000000
     -1.3978141	      0.1024241	      0.0000000
     -1.4454910	      0.0959202	      0.0000000
     -1.4893565	      0.0883402	      0.0000000
     -1.5291059	      0.0796970	      0.0000000
     -1.5644541	      0.0700083	      0.0000000
     -1.5951361	      0.0592969	      0.0000000
     -1.6209069	      0.0475893	      0.0000000
     -1.6415410	      0.0349154	      0.0000000
     -1.6568297	      0.0213066	      0.0000000
     -1.6666035	      0.0067918	      0.0000000
     -1.6706608	     -0.0086238	      0.0000000
     -1.6688697	     -0.0248788	      0.0000000
     -1.6612112	     -0.0418487	      0.0000000
     -1.6476365	     -0.0594202	      0.0000000
     -1.6281372	     -0.0774755	      0.0000000
     -1.6027217	     -0.0958925	      0.0000000
     -1.5714241	     -0.1145418	      0.0000000
     -1.5343042	     -0.1332846	      0.0000000
     -1.4914506	     -0.1519709	      0.0000000
     -1.4429825	     -0.1704382	      0.0000000
     -1.3890528	     -0.1885113	      0.0000000
     -1.3298506	     -0.2060015	      0.0000000
     -1.2656046	     -0.2227073	      0.0000000
     -1.1965864	     -0.2384157	      0.0000000
     -1.1231138	     -0.2529035	      0.0000000
     -1.0455541	     -0.2659402	      0.0000000
     -0.9643273	     -0.2772912	      0.0000000
     -0.8799088	     -0.2867220	      0.0000000
     -0.7928317	     -0.2940034	      0.0000000
     -0.7036875	     -0.2989176	      0.0000000
     -0.6131269	     -0.3012648	      0.0000000
     -0.5218586	     -0.3008714	      0.0000000
     -0.4306461	     -0.2975981	      0.0000000
     -0.3403035	     -0.2913497	      0.0000000
     -0.2516887	     -0.2820847	      0.0000000
     -0.1656936	     -0.2698267	      0.0000000
     -0.0832379	     -0.2546743	      0.0000000
     -0.0052337	     -0.2368364	      0.0000000
      0.0673372	     -0.2165970	      0.0000000
      0.1336567	     -0.1943552	      0.0000000
      0.1929334	     -0.1705427	      0.0000000
      0.2444971	     -0.1456567	      0.0000000
      0.2877992	     -0.1202517	      0.0000000
      0.3224452	     -0.0949130	      0.0000000
      0.3482159	     -0.0702294	      0.0000000
      0.3650825	     -0.0467716	      0.0000000
      0.3732078	     -0.0250674	      0.0000000
      0.3729829	     -0.0055744	      0.0000000
      0.3649335	      0.0113445	      0.0000000
      0.3499087	      0.0255204	      0.0000000
      0.3288438	      0.0369178	      0.0000000
      0.3027197	      0.0455427	      0.0000000
      0.2725738	      0.0514509	      0.0000000
      0.2394545	      0.0547108	      0.0000000
      0.2044244	      0.0553705	      0.0000000
      0.1685215	      0.0534385	      0.0000000
      0.1328492	      0.0488749	      0.0000000
      0.0983776	      0.0416890	      0.0000000
      0.0665653	      0.0319849	      0.0000000
      0.0379413	      0.0205265	      0.0000000
      0.0162649	      0.0083523	      0.0000000
      0.0000000	      0.0000000	      0.0000000
      0.0000000	      0.0000000	      0.0000000
     -0.0107076	     -0.0568219	      0.0000000
     -0.0092591	     -0.0969264	      0.0000000
      0.0032653	     -0.1222754	      0.0000000
      0.0163651	     -0.1343410	      0.0000000
      0.0307088	     -0.1353648	      0.0000000
      0.0426884	     -0.1277776	      0.0000000
      0.0511229	     -0.1140136	      0.0000000
      0.0546021	     -0.0963010	      0.0000000
      0.0524770	     -0.0765475	      0.0000000
      0.0443687	     -0.0562605	      0.0000000
      0.0302305	     -0.0365062	      0.0000000
      0.0101995	     -0.0179306	      0.0000000
     -0.0154891	     -0.0008219	      0.0000000
     -0.0465671	      0.0148311	      0.0000000
     -0.0826144	      0.0291376	      0.0000000
     -0.1232933	      0.0423295	      0.0000000
     -0.1682936	      0.0546867	      0.0000000
     -0.2173512	      0.0664651	      0.0000000
     -0.2702273	      0.0778545	      0.0000000
     -0.3266930	      0.0889692	      0.0000000
     -0.3865121	      0.0998479	      0.0000000
     -0.4494304	      0.1104658	      0.0000000
     -0.5151680	      0.1207505	      0.0000000
     -0.5834169	      0.1305993	      0.0000000
     -0.6538388	      0.1398949	      0.0000000
     -0.7260653	      0.1485145	      0.0000000
     -0.7997011	      0.1563366	      0.0000000
     -0.8743277	      0.1632453	      0.0000000
     -0.9495082	      0.1691331	      0.0000000
     -1.0247930	      0.1739024	      0.0000000
     -1.0997250	      0.1774675	      0.0000000
     -1.1738443	      0.1797547	      0.0000000
     -1.2466936	      0.1807026	      0.0000000
     -1.3178229	      0.1802618	      0.0000000
     -1.3867935	      0.1783951	      0.0000000
     -1.4531824	      0.1750763	      0.0000000
     -1.5165853	      0.1702905	      0.0000000
     -1.5766194	      0.1640329	      0.0000000
     -1.6329254	      0.1563084	      0.0000000
     -1.6851692	      0.1471306	      0.0000000
     -1.7330426	      0.1365209	      0.0000000
     -1.7762644	      0.1245081	      0.0000000
     -1.8145795	      0.1111273	      0.0000000
     -1.8477596	      0.0964188	      0.0000000
     -1.8756021	      0.0804282	      0.0000000
     -1.8979296	      0.0632042	      0.0000000
     -1.9145881	      0.0447989	      0.0000000
     -1.9254460	      0.0252664	      0.0000000
     -1.9304220	      0.0046574	      0.0000000
     -1.9293646	     -0.0169910	      0.0000000
     -1.9223049	     -0.0395450	      0.0000000
     -1.9092641	     -0.0628370	      0.0000000
     -1.8902632	     -0.0867410	      0.0000000
     -1.8653415	     -0.1111201	      0.0000000
     -1.8345489	     -0.1358309	      0.0000000
     -1.7979495	     -0.1607196	      0.0000000
     -1.7556242	     -0.1856205	      0.0000000
     -1.7076726	     -0.2103538	      0.0000000
     -1.6542161	     -0.2347244	      0.0000000
     -1.5954007	     -0.2585211	      0.0000000
     -1.5314003	     -0.2815159	      0.0000000
     -1.4624205	     -0.3034645	      0.0000000
     -1.3887028	     -0.3241075	      0.0000000
     -1.3105282	     -0.3431715	      0.0000000
     -1.2282218	     -0.3603725	      0.0000000
     -1.1421566	     -0.3754196	      0.0000000
     -1.0527574	     -0.3880194	      0.0000000
     -0.9605044	     -0.3978823	      0.0000000
     -0.8659350	     -0.4047292	      0.0000000
     -0.7696464	     -0.4083002	      0.0000000
     -0.6722951	     -0.4083636	      0.0000000
     -0.5745963	     -0.4047259	      0.0000000
     -0.4773210	     -0.3972436	      0.0000000
     -0.3812912	     -0.3858348	      0.0000000
     -0.2873729	     -0.3704921	      0.0000000
     -0.1964668	     -0.3512977	      0.0000000
     -0.1095027	     -0.3284337	      0.0000000
     -0.0274129	     -0.3022235	      0.0000000
      0.0488171	     -0.2730895	      0.0000000
      0.1183056	     -0.2415921	      0.0000000
      0.1802556	     -0.2083506	      0.0000000
      0.2339687	     -0.1740386	      0.0000000
      0.2788854	     -0.1394096	      0.0000000
      0.3146040	     -0.1052348	      0.0000000
      0.3409019	     -0.0722820	      0.0000000
      0.3577496	     -0.0412887	      0.0000000
      0.3653489	     -0.0129198	      0.0000000
      0.3640711	      0.0122090	      0.0000000
      0.3545981	      0.0337062	      0.0000000
      0.3378510	      0.0514345	      0.0000000
      0.3147969	      0.0653284	      0.0000000
      0.2865130	      0.0753981	      0.0000000
      0.2541204	      0.0816890	      0.0000000
      0.2187866	      0.0842395	      0.0000000
      0.1816772	      0.0830480	      0.0000000
      0.1440604	      0.0780506	      0.0000000
      0.1070802	      0.0691774	      0.0000000
      0.0725070	      0.0563824	      0.0000000
      0.0410804	      0.0400010	      0.0000000
      0.0174509	      0.0205213	      0.0000000
      0.0000000	      0.0000000	      0.0000000
      0.0000000	      0.0000000	      0.0000000
     -0.0108087	     -0.0682204	      0.0000000
     -0.0100389	     -0.1154980	      0.0000000
      0.0006155	     -0.1448051	      0.0000000
      0.0107000	     -0.1579201	      0.0000000
      0.0209505	     -0.1575654	      0.0000000
      0.0279307	     -0.1466716	      0.0000000
      0.0306242	     -0.1282011	      0.0000000