# vtk DataFile Version 2.0
vw
ASCII
DATASET STRUCTURED_POINTS
DIMENSIONS  102  102    1
ORIGIN      0.0000000      0.0000000      0.0000000
SPACING      0.0100000      0.0100000      0.0100000
POINT_DATA  10404
VECTORS velocity float
      0.0000000	      0.0000000	      0.0000000
      0.0000000	      0.0000000	      0.0000000
      0.0000000	      0.0000000	      0.0000000
      0.0000000	      0.0000000	      0.0000000
      0.0000000	      0.0000000	      0.0000000
      0.0000000	      0.0000000	      0.0000000
      0.0000000	      0.0000000	      0.0000000
      0.0000000	      0.0000000	      0.0000000
      0.0000000	      0.0000000	      0.0000000
      0.0000000	      0.0000000	      0.0000000
      0.0000000	      0.0000000	      0.0000000
      0.0000000	      0.0000000	      0.0000000
      0.0000000	      0.0000000	      0.0000000
      0.0000000	      0.0000000	      0.0000000
      0.0000000	      0.0000000	      0.0000000
      0.0000000	      0.0000000	      0.0000000
      0.0000000	      0.0000000	      0.0000000
      0.0000000	      0.0000000	      0.0000000
      0.0000000	      0.0000000	      0.0000000
      0.0000000	      0.0000000	      0.0000000
      0.0000000	      0.0000000	      0.0000000
      0.0000000	      0.0000000	      0.0000000
      0.0000000	      0.0000000	      0.0000000
      0.0000000	      0.0000000	      0.0000000
      0.0000000	      0.0000000	      0.0000000
      0.0000000	      0.0000000	      0.0000000
      0.0000000	      0.0000000	      0.0000000
      0.0000000	      0.0000000	      0.0000000
      0.0000000	      0.0000000	      0.0000000
      0.0000000	      0.0000000	      0.0000000
      0.0000000	      0.0000000	      0.0000000
      0.0000000	      0.0000000	      0.0000000
      0.0000000	      0.0000000	      0.0000000
      0.0000000	      0.0000000	      0.0000000
      0.0000000	      0.0000000	      0.0000000
      0.0000000	      0.0000000	      0.0000000
      0.0000000	      0.0000000	      0.0000000
      0.0000000	      0.0000000	      0.0000000
      0.0000000	      0.0000000	      0.0000000
      0.0000000	      0.0000000	      0.0000000
      0.0000000	      0.0000000	      0.0000000
      0.0000000	      0.0000000	      0.0000000
      0.0000000	      0.0000000	      0.0000000
      0.0000000	      0.0000000	      0.0000000
      0.0000000	      0.0000000	      0.0000000
      0.0000000	      0.0000000	      0.0000000
      0.0000000	      0.0000000	      0.0000000
      0.0000000	      0.0000000	      0.0000000
      0.0000000	      0.0000000	      0.0000000
      0.0000000	      0.0000000	      0.0000000
      0.0000000	      0.0000000	      0.0000000
      0.0000000	      0.0000000	      0.0000000
      0.0000000	      0.0000000	      0.0000000
      0.0000000	      0.0000000	      0.0000000
      0.0000000	      0.0000000	      0.0000000
      0.0000000	      0.0000000	      0.0000000
      0.0000000	      0.0000000	      0.0000000
      0.0000000	      0.0000000	      0.0000000
      0.0000000	      0.0000000	      0.0000000
      0.0000000	      0.0000000	      0.0000000
      0.0000000	      0.0000000	      0.0000000
      0.0000000	      0.0000000	      0.0000000
      0.0000000	      0.0000000	      0.0000000
      0.0000000	      0.0000000	      0.0000000
      0.0000000	      0.0000000	      0.0000000
      0.0000000	      0.0000000	      0.0000000
      0.0000000	      0.0000000	      0.0000000
      0.0000000	      0.0000000	      0.0000000
      0.0000000	      0.0000000	      0.0000000
      0.0000000	      0.0000000	      0.0000000
      0.0000000	      0.0000000	      0.0000000
      0.0000000	      0.0000000	      0.0000000
      0.0000000	      0.0000000	      0.0000000
      0.0000000	      0.0000000	      0.0000000
      0.0000000	      0.0000000	      0.0000000
      0.0000000	      0.0000000	      0.0000000
      0.0000000	      0.0000000	      0.0000000
      0.0000000	      0.0000000	      0.0000000
      0.0000000	      0.0000000	      0.0000000
      0.0000000	      0.0000000	      0.0000000
      0.0000000	      0.0000000	      0.0000000
      0.0000000	      0.0000000	      0.0000000
      0.0000000	      0.0000000	      0.0000000
      0.0000000	      0.0000000	      0.0000000
      0.0000000	      0.0000000	      0.0000000
      0.0000000	      0.0000000	      0.0000000
      0.0000000	      0.0000000	      0.0000000
      0.0000000	      0.0000000	      0.0000000
      0.0000000	      0.0000000	      0.0000000
      0.0000000	      0.0000000	      0.0000000
      0.0000000	      0.0000000	      0.0000000
      0.0000000	      0.0000000	      0.0000000
      0.0000000	      0.0000000	      0.0000000
      0.0000000	      0.0000000	      0.0000000
      0.0000000	      0.0000000	      0.0000000
      0.0000000	      0.0000000	      0.0000000
      0.0000000	      0.0000000	      0.0000000
      0.0000000	      0.0000000	      0.0000000
      0.0000000	      0.0000000	      0.0000000
      0.0000000	      0.0000000	      0.0000000
      0.0000000	      0.0000000	      0.0000000
      0.0000000	      0.0000000	      0.0000000
      0.0000000	      0.0000000	      0.0000000
      0.0001132	      0.0000109	      0.0000000
      0.0001033	      0.0000903	      0.0000000
     -0.0000577	      0.0001878	      0.0000000
     -0.0003569	      0.0002901	      0.0000000
     -0.0008102	      0.0003789	      0.0000000
     -0.0013794	      0.0004556	      0.0000000
     -0.0020622	      0.0005152	      0.0000000
     -0.0028224	      0.0005619	      0.0000000
     -0.0036530	      0.0005951	      0.0000000
     -0.0045268	      0.0006187	      0.0000000
     -0.0054377	      0.0006334	      0.0000000
     -0.0063676	      0.0006421	      0.0000000
     -0.0073127	      0.0006457	      0.0000000
     -0.0082622	      0.0006461	      0.0000000
     -0.0092144	      0.0006440	      0.0000000
     -0.0101632	      0.0006403	      0.0000000
     -0.0111081	      0.0006355	      0.0000000
     -0.0120460	      0.0006300	      0.0000000
     -0.0129770	      0.0006241	      0.0000000
     -0.0138994	      0.0006177	      0.0000000
     -0.0148131	      0.0006111	      0.0000000
     -0.0157173	      0.0006042	      0.0000000
     -0.0166117	      0.0005969	      0.0000000
     -0.0174957	      0.0005893	      0.0000000
     -0.0183689	      0.0005813	      0.0000000
     -0.0192305	      0.0005728	      0.0000000
     -0.0200800	      0.0005639	      0.0000000
     -0.0209166	      0.0005544	      0.0000000
     -0.0217397	      0.0005443	      0.0000000
     -0.0225484	      0.0005337	      0.0000000
     -0.0233419	      0.0005224	      0.0000000
     -0.0241192	      0.0005105	      0.0000000
     -0.0248794	      0.0004979	      0.0000000
     -0.0256216	      0.0004845	      0.0000000
     -0.0263447	      0.0004704	      0.0000000
     -0.0270476	      0.0004556	      0.0000000
     -0.0277293	      0.0004399	      0.0000000
     -0.0283885	      0.0004235	      0.0000000
     -0.0290243	      0.0004062	      0.0000000
     -0.0296352	      0.0003880	      0.0000000
     -0.0302202	      0.0003690	      0.0000000
     -0.0307779	      0.0003491	      0.0000000
     -0.0313070	      0.0003283	      0.0000000
     -0.0318064	      0.0003065	      0.0000000
     -0.0322745	      0.0002839	      0.0000000
     -0.0327102	      0.0002603	      0.0000000
     -0.0331120	      0.0002358	      0.0000000
     -0.0334787	      0.0002104	      0.0000000
     -0.0338088	      0.0001841	      0.0000000
     -0.0341011	      0.0001569	      0.0000000
     -0.0343542	      0.0001287	      0.0000000
     -0.0345669	      0.0000998	      0.0000000
     -0.0347378	      0.0000700	      0.0000000
     -0.0348659	      0.0000394	      0.0000000
     -0.0349499	      0.0000080	      0.0000000
     -0.0349887	     -0.0000241	      0.0000000
     -0.0349812	     -0.0000570	      0.0000000
     -0.0349262	     -0.0000906	      0.0000000
     -0.0348228	     -0.0001248	      0.0000000
     -0.0346700	     -0.0001596	      0.0000000
     -0.0344670	     -0.0001949	      0.0000000
     -0.0342130	     -0.0002307	      0.0000000
     -0.0339075	     -0.0002668	      0.0000000
     -0.0335498	     -0.0003032	      0.0000000
     -0.0331398	     -0.0003398	      0.0000000
     -0.0326770	     -0.0003764	      0.0000000
     -0.0321613	     -0.0004131	      0.0000000
     -0.0315929	     -0.0004496	      0.0000000
     -0.0309718	     -0.0004860	      0.0000000
     -0.0302983	     -0.0005220	      0.0000000
     -0.0295729	     -0.0005576	      0.0000000
     -0.0287962	     -0.0005927	      0.0000000
     -0.0279689	     -0.0006272	      0.0000000
     -0.0270920	     -0.0006610	      0.0000000
     -0.0261665	     -0.0006939	      0.0000000
     -0.0251937	     -0.0007259	      0.0000000
     -0.0241750	     -0.0007569	      0.0000000
     -0.0231119	     -0.0007866	      0.0000000
     -0.0220062	     -0.0008151	      0.0000000
     -0.0208600	     -0.0008422	      0.0000000
     -0.0196753	     -0.0008677	      0.0000000
     -0.0184552	     -0.0008913	      0.0000000
     -0.0172020	     -0.0009128	      0.0000000
     -0.0159202	     -0.0009319	      0.0000000
     -0.0146128	     -0.0009481	      0.0000000
     -0.0132866	     -0.0009606	      0.0000000
     -0.0119458	     -0.0009689	      0.0000000
     -0.0106010	     -0.0009717	      0.0000000
     -0.0092580	     -0.0009681	      0.0000000
     -0.0079333	     -0.0009560	      0.0000000
     -0.0066348	     -0.0009345	      0.0000000
     -0.0053873	     -0.0009004	      0.0000000
     -0.0042010	     -0.0008529	      0.0000000
     -0.0031111	     -0.0007874	      0.0000000
     -0.0021285	     -0.0007045	      0.0000000
     -0.0012995	     -0.0005983	      0.0000000
     -0.0006315	     -0.0004743	      0.0000000
     -0.0001741	     -0.0003280	      0.0000000
      0.0000816	     -0.0001821	      0.0000000
      0.0001178	     -0.0000486	      0.0000000
      0.0000000	      0.0000000	      0.0000000
      0.0000000	      0.0000000	      0.0000000
      0.0000662	      0.0000565	      0.0000000
     -0.0000774	      0.0002973	      0.0000000
     -0.0004697	      0.0005813	      0.0000000
     -0.0010954	      0.0008805	      0.0000000
     -0.0019745	      0.0011471	      0.0000000
     -0.0030550	      0.0013816	      0.0000000
     -0.0043293	      0.0015704	      0.0000000
     -0.0057447	      0.0017213	      0.0000000
     -0.0072852	      0.0018334	      0.0000000
     -0.0089092	      0.0019154	      0.0000000
     -0.0106020	      0.0019702	      0.0000000
     -0.0123350	      0.0020050	      0.0000000
     -0.0140979	      0.0020232	      0.0000000
     -0.0158732	      0.0020299	      0.0000000
     -0.0176551	      0.0020277	      0.0000000
     -0.0194334	      0.0020196	      0.0000000
     -0.0212053	      0.0020070	      0.0000000
     -0.0229654	      0.0019916	      0.0000000
     -0.0247124	      0.0019740	      0.0000000
     -0.0264434	      0.0019549	      0.0000000
     -0.0281577	      0.0019345	      0.0000000
     -0.0298532	      0.0019129	      0.0000000
     -0.0315295	      0.0018901	      0.0000000
     -0.0331849	      0.0018662	      0.0000000
     -0.0348186	      0.0018409	      0.0000000
     -0.0364293	      0.0018142	      0.0000000
     -0.0380157	      0.0017860	      0.0000000
     -0.0395764	      0.0017561	      0.0000000
     -0.0411100	      0.0017246	      0.0000000
     -0.0426150	      0.0016912	      0.0000000
     -0.0440899	      0.0016558	      0.0000000
     -0.0455328	      0.0016185	      0.0000000
     -0.0469421	      0.0015790	      0.0000000
     -0.0483159	      0.0015374	      0.0000000
     -0.0496525	      0.0014934	      0.0000000
     -0.0509498	      0.0014472	      0.0000000
     -0.0522058	      0.0013985	      0.0000000
     -0.0534185	      0.0013473	      0.0000000
     -0.0545858	      0.0012936	      0.0000000
     -0.0557055	      0.0012373	      0.0000000
     -0.0567754	      0.0011784	      0.0000000
     -0.0577932	      0.0011167	      0.0000000
     -0.0587567	      0.0010523	      0.0000000
     -0.0596635	      0.0009851	      0.0000000
     -0.0605114	      0.0009151	      0.0000000
     -0.0612979	      0.0008423	      0.0000000
     -0.0620206	      0.0007666	      0.0000000
     -0.0626773	      0.0006882	      0.0000000
     -0.0632655	      0.0006069	      0.0000000
     -0.0637830	      0.0005229	      0.0000000
     -0.0642274	      0.0004362	      0.0000000
     -0.0645965	      0.0003469	      0.0000000
     -0.0648881	      0.0002550	      0.0000000
     -0.0651001	      0.0001606	      0.0000000
     -0.0652303	      0.0000639	      0.0000000
     -0.0652770	     -0.0000351	      0.0000000
     -0.0652381	     -0.0001364	      0.0000000
     -0.0651118	     -0.0002399	      0.0000000
     -0.0648963	     -0.0003454	      0.0000000
     -0.0645902	     -0.0004526	      0.0000000
     -0.0641921	     -0.0005614	      0.0000000
     -0.0637007	     -0.0006715	      0.0000000
     -0.0631150	     -0.0007827	      0.0000000
     -0.0624343	     -0.0008947	      0.0000000
     -0.0616579	     -0.0010073	      0.0000000
     -0.0607854	     -0.0011202	      0.0000000
     -0.0598168	     -0.0012331	      0.0000000
     -0.0587522	     -0.0013457	      0.0000000
     -0.0575918	     -0.0014577	      0.0000000
     -0.0563364	     -0.0015689	      0.0000000
     -0.0549867	     -0.0016788	      0.0000000
     -0.0535440	     -0.0017871	      0.0000000
     -0.0520096	     -0.0018936	      0.0000000
     -0.0503852	     -0.0019979	      0.0000000
     -0.0486728	     -0.0020997	      0.0000000
     -0.0468748	     -0.0021986	      0.0000000
     -0.0449935	     -0.0022942	      0.0000000
     -0.0430322	     -0.0023862	      0.0000000
     -0.0409938	     -0.0024742	      0.0000000
     -0.0388823	     -0.0025575	      0.0000000
     -0.0367017	     -0.0026358	      0.0000000
     -0.0344573	     -0.0027080	      0.0000000
     -0.0321540	     -0.0027734	      0.0000000
     -0.0297997	     -0.0028305	      0.0000000
     -0.0274008	     -0.0028779	      0.0000000
     -0.0249691	     -0.0029133	      0.0000000
     -0.0225137	     -0.0029345	      0.0000000
     -0.0200524	     -0.0029376	      0.0000000
     -0.0175982	     -0.0029195	      0.0000000
     -0.0151781	     -0.0028746	      0.0000000
     -0.0128098	     -0.0027991	      0.0000000
     -0.0105325	     -0.0026850	      0.0000000
     -0.0083686	     -0.0025291	      0.0000000
     -0.0063722	     -0.0023215	      0.0000000
     -0.0045667	     -0.0020629	      0.0000000
     -0.0030199	     -0.0017422	      0.0000000
     -0.0017470	     -0.0013743	      0.0000000
     -0.0008172	     -0.0009536	      0.0000000
     -0.0002164	     -0.0005386	      0.0000000
      0.0000282	     -0.0001562	      0.0000000
      0.0000000	      0.0000000	      0.0000000
      0.0000000	      0.0000000	      0.0000000
     -0.0000178	      0.0002061	      0.0000000
     -0.0003295	      0.0007089	      0.0000000
     -0.0009862	      0.0012806	      0.0000000
     -0.0019472	      0.0018746	      0.0000000
     -0.0032380	      0.0024118	      0.0000000
     -0.0047927	      0.0028867	      0.0000000
     -0.0066010	      0.0032766	      0.0000000
     -0.0085985	      0.0035912	      0.0000000
     -0.0107631	      0.0038300	      0.0000000
     -0.0130430	      0.0040066	      0.0000000
     -0.0154172	      0.0041283	      0.0000000
     -0.0178493	      0.0042074	      0.0000000
     -0.0203240	      0.0042519	      0.0000000
     -0.0228183	      0.0042710	      0.0000000
     -0.0253227	      0.0042706	      0.0000000
     -0.0278239	      0.0042565	      0.0000000
     -0.0303167	      0.0042323	      0.0000000
     -0.0327937	      0.0042012	      0.0000000
     -0.0352521	      0.0041648	      0.0000000
     -0.0376877	      0.0041246	      0.0000000
     -0.0400988	      0.0040811	      0.0000000
     -0.0424827	      0.0040348	      0.0000000
     -0.0448381	      0.0039858	      0.0000000
     -0.0471627	      0.0039341	      0.0000000
     -0.0494550	      0.0038795	      0.0000000
     -0.0517131	      0.0038219	      0.0000000
     -0.0539352	      0.0037611	      0.0000000
     -0.0561192	      0.0036968	      0.0000000
     -0.0582631	      0.0036289	      0.0000000
     -0.0603647	      0.0035572	      0.0000000
     -0.0624218	      0.0034814	      0.0000000
     -0.0644320	      0.0034015	      0.0000000
     -0.0663930	      0.0033172	      0.0000000
     -0.0683021	      0.0032285	      0.0000000
     -0.0701569	      0.0031350	      0.0000000
     -0.0719547	      0.0030368	      0.0000000
     -0.0736926	      0.0029336	      0.0000000
     -0.0753680	      0.0028253	      0.0000000
     -0.0769779	      0.0027118	      0.0000000
     -0.0785195	      0.0025930	      0.0000000
     -0.0799897	      0.0024688	      0.0000000
     -0.0813855	      0.0023390	      0.0000000
     -0.0827038	      0.0022037	      0.0000000
     -0.0839416	      0.0020628	      0.0000000
     -0.0850957	      0.0019161	      0.0000000
     -0.0861629	      0.0017637	      0.0000000
     -0.0871402	      0.0016056	      0.0000000
     -0.0880244	      0.0014418	      0.0000000
     -0.0888123	      0.0012723	      0.0000000
     -0.0895010	      0.0010972	      0.0000000
     -0.0900873	      0.0009167	      0.0000000
     -0.0905683	      0.0007308	      0.0000000
     -0.0909411	      0.0005398	      0.0000000
     -0.0912029	      0.0003438	      0.0000000
     -0.0913511	      0.0001429	      0.0000000
     -0.0913830	     -0.0000626	      0.0000000
     -0.0912962	     -0.0002726	      0.0000000
     -0.0910883	     -0.0004869	      0.0000000
     -0.0907572	     -0.0007051	      0.0000000
     -0.0903010	     -0.0009269	      0.0000000
     -0.0897179	     -0.0011517	      0.0000000
     -0.0890064	     -0.0013791	      0.0000000
     -0.0881654	     -0.0016086	      0.0000000
     -0.0871938	     -0.0018398	      0.0000000
     -0.0860911	     -0.0020720	      0.0000000
     -0.0848568	     -0.0023048	      0.0000000
     -0.0834908	     -0.0025376	      0.0000000
     -0.0819934	     -0.0027697	      0.0000000
     -0.0803653	     -0.0030005	      0.0000000
     -0.0786072	     -0.0032295	      0.0000000
     -0.0767206	     -0.0034559	      0.0000000
     -0.0747069	     -0.0036791	      0.0000000
     -0.0725683	     -0.0038985	      0.0000000
     -0.0703072	     -0.0041134	      0.0000000
     -0.0679261	     -0.0043231	      0.0000000
     -0.0654284	     -0.0045268	      0.0000000
     -0.0628176	     -0.0047238	      0.0000000
     -0.0600978	     -0.0049133	      0.0000000
     -0.0572734	     -0.0050943	      0.0000000
     -0.0543499	     -0.0052658	      0.0000000
     -0.0513327	     -0.0054264	      0.0000000
     -0.0482292	     -0.0055744	      0.0000000
     -0.0450465	     -0.0057079	      0.0000000
     -0.0417951	     -0.0058239	      0.0000000
     -0.0384844	     -0.0059193	      0.0000000
     -0.0351301	     -0.0059892	      0.0000000
     -0.0317455	     -0.0060288	      0.0000000
     -0.0283538	     -0.0060308	      0.0000000
     -0.0249738	     -0.0059880	      0.0000000
     -0.0216401	     -0.0058900	      0.0000000
     -0.0183779	     -0.0057281	      0.0000000
     -0.0152370	     -0.0054886	      0.0000000
     -0.0122482	     -0.0051639	      0.0000000
     -0.0094787	     -0.0047381	      0.0000000
     -0.0069601	     -0.0042111	      0.0000000
     -0.0047754	     -0.0035688	      0.0000000
     -0.0029433	     -0.0028358	      0.0000000
     -0.0015524	     -0.0020117	      0.0000000
     -0.0005817	     -0.0011908	      0.0000000
     -0.0000973	     -0.0004215	      0.0000000
      0.0000000	      0.0000000	      0.0000000
      0.0000000	      0.0000000	      0.0000000
     -0.0001212	      0.0005040	      0.0000000
     -0.0006236	      0.0013525	      0.0000000
     -0.0015614	      0.0022780	      0.0000000
     -0.0028570	      0.0032198	      0.0000000
     -0.0045406	      0.0040754	      0.0000000
     -0.0065310	      0.0048330	      0.0000000
     -0.0088184	      0.0054619	      0.0000000
     -0.0113289	      0.0059725	      0.0000000
     -0.0140376	      0.0063653	      0.0000000
     -0.0168856	      0.0066588	      0.0000000
     -0.0198478	      0.0068645	      0.0000000
     -0.0228822	      0.0070006	      0.0000000
     -0.0259697	      0.0070799	      0.0000000
     -0.0290831	      0.0071165	      0.0000000
     -0.0322102	      0.0071200	      0.0000000
     -0.0353346	      0.0070997	      0.0000000
     -0.0384492	      0.0070617	      0.0000000
     -0.0415446	      0.0070109	      0.0000000
     -0.0446166	      0.0069506	      0.0000000
     -0.0476599	      0.0068830	      0.0000000
     -0.0506717	      0.0068093	      0.0000000
     -0.0536484	      0.0067304	      0.0000000
     -0.0565879	      0.0066465	      0.0000000
     -0.0594874	      0.0065578	      0.0000000
     -0.0623446	      0.0064640	      0.0000000
     -0.0651571	      0.0063649	      0.0000000
     -0.0679225	      0.0062604	      0.0000000
     -0.0706380	      0.0061501	      0.0000000
     -0.0733013	      0.0060337	      0.0000000
     -0.0759095	      0.0059110	      0.0000000
     -0.0784597	      0.0057816	      0.0000000
     -0.0809492	      0.0056453	      0.0000000
     -0.0833749	      0.0055018	      0.0000000
     -0.0857336	      0.0053509	      0.0000000
     -0.0880223	      0.0051924	      0.0000000
     -0.0902377	      0.0050261	      0.0000000
     -0.0923765	      0.0048516	      0.0000000
     -0.0944352	      0.0046689	      0.0000000
     -0.0964103	      0.0044777	      0.0000000
     -0.0982985	      0.0042779	      0.0000000
     -0.1000960	      0.0040693	      0.0000000
     -0.1017992	      0.0038518	      0.0000000
     -0.1034045	      0.0036253	      0.0000000
     -0.1049081	      0.0033896	      0.0000000
     -0.1063064	      0.0031448	      0.0000000
     -0.1075956	      0.0028907	      0.0000000
     -0.1087719	      0.0026275	      0.0000000
     -0.1098317	      0.0023551	      0.0000000
     -0.1107713	      0.0020736	      0.0000000
     -0.1115871	      0.0017832	      0.0000000
     -0.1122754	      0.0014840	      0.0000000
     -0.1128328	      0.0011762	      0.0000000
     -0.1132559	      0.0008602	      0.0000000
     -0.1135414	      0.0005361	      0.0000000
     -0.1136863	      0.0002044	      0.0000000
     -0.1136874	     -0.0001347	      0.0000000
     -0.1135419	     -0.0004810	      0.0000000
     -0.1132473	     -0.0008339	      0.0000000
     -0.1128010	     -0.0011930	      0.0000000
     -0.1122010	     -0.0015574	      0.0000000
     -0.1114454	     -0.0019266	      0.0000000
     -0.1105324	     -0.0022998	      0.0000000
     -0.1094609	     -0.0026763	      0.0000000
     -0.1082298	     -0.0030552	      0.0000000
     -0.1068385	     -0.0034357	      0.0000000
     -0.1052866	     -0.0038168	      0.0000000
     -0.1035743	     -0.0041977	      0.0000000
     -0.1017019	     -0.0045774	      0.0000000
     -0.0996702	     -0.0049550	      0.0000000
     -0.0974806	     -0.0053293	      0.0000000
     -0.0951346	     -0.0056993	      0.0000000
     -0.0926345	     -0.0060641	      0.0000000
     -0.0899826	     -0.0064225	      0.0000000
     -0.0871820	     -0.0067734	      0.0000000
     -0.0842361	     -0.0071157	      0.0000000
     -0.0811489	     -0.0074482	      0.0000000
     -0.0779246	     -0.0077696	      0.0000000
     -0.0745686	     -0.0080787	      0.0000000
     -0.0710861	     -0.0083737	      0.0000000
     -0.0674841	     -0.0086529	      0.0000000
     -0.0637692	     -0.0089140	      0.0000000
     -0.0599506	     -0.0091542	      0.0000000
     -0.0560371	     -0.0093701	      0.0000000
     -0.0520415	     -0.0095570	      0.0000000
     -0.0479757	     -0.0097095	      0.0000000
     -0.0438585	     -0.0098201	      0.0000000
     -0.0397064	     -0.0098804	      0.0000000
     -0.0355470	     -0.0098792	      0.0000000
     -0.0314033	     -0.0098047	      0.0000000
     -0.0273157	     -0.0096410	      0.0000000
     -0.0233146	     -0.0093743	      0.0000000
     -0.0194569	     -0.0089844	      0.0000000
     -0.0157789	     -0.0084591	      0.0000000
     -0.0123568	     -0.0077769	      0.0000000
     -0.0092259	     -0.0069366	      0.0000000
     -0.0064811	     -0.0059223	      0.0000000
     -0.0041407	     -0.0047661	      0.0000000
     -0.0023137	     -0.0034734	      0.0000000
     -0.0009728	     -0.0021616	      0.0000000
     -0.0002358	     -0.0008938	      0.0000000
      0.0000000	      0.0000000	      0.0000000
      0.0000000	      0.0000000	      0.0000000
     -0.0002144	      0.0009451	      0.0000000
     -0.0008966	      0.0022341	      0.0000000
     -0.0021040	      0.0035879	      0.0000000
     -0.0037158	      0.0049358	      0.0000000
     -0.0057657	      0.0061605	      0.0000000
     -0.0081545	      0.0072439	      0.0000000
     -0.0108734	      0.0081492	      0.0000000
     -0.0138393	      0.0088877	      0.0000000
     -0.0170262	      0.0094609	      0.0000000
     -0.0203689	      0.0098923	      0.0000000
     -0.0238404	      0.0101982	      0.0000000
     -0.0273941	      0.0104032	      0.0000000
     -0.0310085	      0.0105252	      0.0000000
     -0.0346534	      0.0105838	      0.0000000
     -0.0383142	      0.0105930	      0.0000000
     -0.0419724	      0.0105659	      0.0000000
     -0.0456191	      0.0105114	      0.0000000
     -0.0492435	      0.0104369	      0.0000000
     -0.0528402	      0.0103471	      0.0000000
     -0.0564026	      0.0102455	      0.0000000
     -0.0599272	      0.0101340	      0.0000000
     -0.0634094	      0.0100141	      0.0000000
     -0.0668466	      0.0098863	      0.0000000
     -0.0702353	      0.0097507	      0.0000000
     -0.0735726	      0.0096073	      0.0000000
     -0.0768554	      0.0094559	      0.0000000
     -0.0800809	      0.0092961	      0.0000000
     -0.0832459	      0.0091277	      0.0000000
     -0.0863473	      0.0089501	      0.0000000
     -0.0893820	      0.0087631	      0.0000000
     -0.0923466	      0.0085662	      0.0000000
     -0.0952377	      0.0083592	      0.0000000
     -0.0980518	      0.0081416	      0.0000000
     -0.1007854	      0.0079131	      0.0000000
     -0.1034349	      0.0076734	      0.0000000
     -0.1059964	      0.0074222	      0.0000000
     -0.1084663	      0.0071593	      0.0000000
     -0.1108405	      0.0068843	      0.0000000
     -0.1131152	      0.0065970	      0.0000000
     -0.1152864	      0.0062971	      0.0000000
     -0.1173500	      0.0059845	      0.0000000
     -0.1193019	      0.0056590	      0.0000000
     -0.1211380	      0.0053205	      0.0000000
     -0.1228541	      0.0049688	      0.0000000
     -0.1244460	      0.0046038	      0.0000000
     -0.1259096	      0.0042256	      0.0000000
     -0.1272407	      0.0038342	      0.0000000
     -0.1284352	      0.0034296	      0.0000000
     -0.1294889	      0.0030119	      0.0000000
     -0.1303979	      0.0025814	      0.0000000
     -0.1311582	      0.0021384	      0.0000000
     -0.1317659	      0.0016830	      0.0000000
     -0.1322172	      0.0012158	      0.0000000
     -0.1325086	      0.0007371	      0.0000000
     -0.1326366	      0.0002475	      0.0000000
     -0.1325979	     -0.0002527	      0.0000000
     -0.1323895	     -0.0007629	      0.0000000
     -0.1320084	     -0.0012825	      0.0000000
     -0.1314523	     -0.0018105	      0.0000000
     -0.1307188	     -0.0023460	      0.0000000
     -0.1298059	     -0.0028882	      0.0000000
     -0.1287121	     -0.0034358	      0.0000000
     -0.1274358	     -0.0039879	      0.0000000
     -0.1259763	     -0.0045431	      0.0000000
     -0.1243329	     -0.0051004	      0.0000000
     -0.1225053	     -0.0056585	      0.0000000
     -0.1204939	     -0.0062159	      0.0000000
     -0.1182991	     -0.0067713	      0.0000000
     -0.1159222	     -0.0073233	      0.0000000
     -0.1133647	     -0.0078705	      0.0000000
     -0.1106286	     -0.0084112	      0.0000000
     -0.1077163	     -0.0089440	      0.0000000
     -0.1046308	     -0.0094674	      0.0000000
     -0.1013758	     -0.0099797	      0.0000000
     -0.0979551	     -0.0104793	      0.0000000
     -0.0943734	     -0.0109644	      0.0000000
     -0.0906358	     -0.0114332	      0.0000000
     -0.0867483	     -0.0118836	      0.0000000
     -0.0827171	     -0.0123133	      0.0000000
     -0.0785502	     -0.0127197	      0.0000000
     -0.0742553	     -0.0130992	      0.0000000
     -0.0698431	     -0.0134478	      0.0000000
     -0.0653238	     -0.0137604	      0.0000000
     -0.0607119	     -0.0140301	      0.0000000
     -0.0560214	     -0.0142490	      0.0000000
     -0.0512733	     -0.0144063	      0.0000000
     -0.0464866	     -0.0144900	      0.0000000
     -0.0416921	     -0.0144838	      0.0000000
     -0.0369158	     -0.0143712	      0.0000000
     -0.0322022	     -0.0141302	      0.0000000
     -0.0275851	     -0.0137410	      0.0000000
     -0.0231269	     -0.0131769	      0.0000000
     -0.0188668	     -0.0124203	      0.0000000
     -0.0148886	     -0.0114442	      0.0000000
     -0.0112290	     -0.0102455	      0.0000000
     -0.0079946	     -0.0088070	      0.0000000
     -0.0052024	     -0.0071654	      0.0000000
     -0.0029845	     -0.0053316	      0.0000000
     -0.0013096	     -0.0034349	      0.0000000
     -0.0003504	     -0.0015475	      0.0000000
      0.0000000	      0.0000000	      0.0000000
      0.0000000	      0.0000000	      0.0000000
     -0.0002988	      0.0015165	      0.0000000
     -0.0011482	      0.0033309	      0.0000000
     -0.0026059	      0.0051734	      0.0000000
     -0.0045091	      0.0069686	      0.0000000
     -0.0068929	      0.0085939	      0.0000000
     -0.0096397	      0.0100271	      0.0000000
     -0.0127414	      0.0112288	      0.0000000