# vtk DataFile Version 2.0
vw
ASCII
DATASET STRUCTURED_POINTS
DIMENSIONS  102  102    1
ORIGIN      0.0000000      0.0000000      0.0000000
SPACING      0.0100000      0.0100000      0.0100000
POINT_DATA  10404
VECTORS velocity float
      0.0000000	      0.0000000	      0.0000000
      0.0000000	      0.0000000	      0.0000000
      0.0000000	      0.0000000	      0.0000000
      0.0000000	      0.0000000	      0.0000000
      0.0000000	      0.0000000	      0.0000000
      0.0000000	      0.0000000	      0.0000000
      0.0000000	      0.0000000	      0.0000000
      0.0000000	      0.0000000	      0.0000000
      0.0000000	      0.0000000	      0.0000000
      0.0000000	      0.0000000	      0.0000000
      0.0000000	      0.0000000	      0.0000000
      0.0000000	      0.0000000	      0.0000000
      0.0000000	      0.0000000	      0.0000000
      0.0000000	      0.0000000	      0.0000000
      0.0000000	      0.0000000	      0.0000000
      0.0000000	      0.0000000	      0.0000000
      0.0000000	      0.0000000	      0.0000000
      0.0000000	      0.0000000	      0.0000000
      0.0000000	      0.0000000	      0.0000000
      0.0000000	      0.0000000	      0.0000000
      0.0000000	      0.0000000	      0.0000000
      0.0000000	      0.0000000	      0.0000000
      0.0000000	      0.0000000	      0.0000000
      0.0000000	      0.0000000	      0.0000000
      0.0000000	      0.0000000	      0.0000000
      0.0000000	      0.0000000	      0.0000000
      0.0000000	      0.0000000	      0.0000000
      0.0000000	      0.0000000	      0.0000000
      0.0000000	      0.0000000	      0.0000000
      0.0000000	      0.0000000	      0.0000000
      0.0000000	      0.0000000	      0.0000000
      0.0000000	      0.0000000	      0.0000000
      0.0000000	      0.0000000	      0.0000000
      0.0000000	      0.0000000	      0.0000000
      0.0000000	      0.0000000	      0.0000000
      0.0000000	      0.0000000	      0.0000000
      0.0000000	      0.0000000	      0.0000000
      0.0000000	      0.0000000	      0.0000000
      0.0000000	      0.0000000	      0.0000000
      0.0000000	      0.0000000	      0.0000000
      0.0000000	      0.0000000	      0.0000000
      0.0000000	      0.0000000	      0.0000000
      0.0000000	      0.0000000	      0.0000000
      0.0000000	      0.0000000	      0.0000000
      0.0000000	      0.0000000	      0.0000000
      0.0000000	      0.0000000	      0.0000000
      0.0000000	      0.0000000	      0.0000000
      0.0000000	      0.0000000	      0.0000000
      0.0000000	      0.0000000	      0.0000000
      0.0000000	      0.0000000	      0.0000000
      0.0000000	      0.0000000	      0.0000000
      0.0000000	      0.0000000	      0.0000000
      0.0000000	      0.0000000	      0.0000000
      0.0000000	      0.0000000	      0.0000000
      0.0000000	      0.0000000	      0.0000000
      0.0000000	      0.0000000	      0.0000000
      0.0000000	      0.0000000	      0.0000000
      0.0000000	      0.0000000	      0.0000000
      0.0000000	      0.0000000	      0.0000000
      0.0000000	      0.0000000	      0.0000000
      0.0000000	      0.0000000	      0.0000000
      0.0000000	      0.0000000	      0.0000000
      0.0000000	      0.0000000	      0.0000000
      0.0000000	      0.0000000	      0.0000000
      0.0000000	      0.0000000	      0.0000000
      0.0000000	      0.0000000	      0.0000000
      0.0000000	      0.0000000	      0.0000000
      0.0000000	      0.0000000	      0.0000000
      0.0000000	      0.0000000	      0.0000000
      0.0000000	      0.0000000	      0.0000000
      0.0000000	      0.0000000	      0.0000000
      0.0000000	      0.0000000	      0.0000000
      0.0000000	      0.0000000	      0.0000000
      0.0000000	      0.0000000	      0.0000000
      0.0000000	      0.0000000	      0.0000000
      0.0000000	      0.0000000	      0.0000000
      0.0000000	      0.0000000	      0.0000000
      0.0000000	      0.0000000	      0.0000000
      0.0000000	      0.0000000	      0.0000000
      0.0000000	      0.0000000	      0.0000000
      0.0000000	      0.0000000	      0.0000000
      0.0000000	      0.0000000	      0.0000000
      0.0000000	      0.0000000	      0.0000000
      0.0000000	      0.0000000	      0.0000000
      0.0000000	      0.0000000	      0.0000000
      0.0000000	      0.0000000	      0.0000000
      0.0000000	      0.0000000	      0.0000000
      0.0000000	      0.0000000	      0.0000000
      0.0000000	      0.0000000	      0.0000000
      0.0000000	      0.0000000	      0.0000000
      0.0000000	      0.0000000	      0.0000000
      0.0000000	      0.0000000	      0.0000000
      0.0000000	      0.0000000	      0.0000000
      0.0000000	      0.0000000	      0.0000000
      0.0000000	      0.0000000	      0.0000000
      0.0000000	      0.0000000	      0.0000000
      0.0000000	      0.0000000	      0.0000000
      0.0000000	      0.0000000	      0.0000000
      0.0000000	      0.0000000	      0.0000000
      0.0000000	      0.0000000	      0.0000000
      0.0000000	      0.0000000	      0.0000000
      0.0000000	      0.0000000	      0.0000000
      0.0000000	      0.0000000	      0.0000000
     -0.0112169	     -0.0129820	      0.0000000
     -0.0121131	     -0.0174456	      0.0000000
     -0.0065881	     -0.0194581	      0.0000000
     -0.0007975	     -0.0201820	      0.0000000
      0.0064951	     -0.0202411	      0.0000000
      0.0133879	     -0.0199074	      0.0000000
      0.0199386	     -0.0192997	      0.0000000
      0.0255045	     -0.0185295	      0.0000000
      0.0300105	     -0.0176633	      0.0000000
      0.0332659	     -0.0167662	      0.0000000
      0.0352733	     -0.0158808	      0.0000000
      0.0360375	     -0.0150395	      0.0000000
      0.0356308	     -0.0142589	      0.0000000
      0.0341303	     -0.0135447	      0.0000000
      0.0316250	     -0.0128928	      0.0000000
      0.0281921	     -0.0122924	      0.0000000
      0.0238961	     -0.0117286	      0.0000000
      0.0187807	     -0.0111855	      0.0000000
      0.0128720	     -0.0106491	      0.0000000
      0.0061781	     -0.0101052	      0.0000000
     -0.0013080	     -0.0095441	      0.0000000
     -0.0096029	     -0.0089619	      0.0000000
     -0.0187265	     -0.0083567	      0.0000000
     -0.0287003	     -0.0077295	      0.0000000
     -0.0395454	     -0.0070814	      0.0000000
     -0.0512784	     -0.0064133	      0.0000000
     -0.0639056	     -0.0057313	      0.0000000
     -0.0774233	     -0.0050430	      0.0000000
     -0.0918157	     -0.0043564	      0.0000000
     -0.1070549	     -0.0036802	      0.0000000
     -0.1230993	     -0.0030238	      0.0000000
     -0.1398936	     -0.0023973	      0.0000000
     -0.1573679	     -0.0018109	      0.0000000
     -0.1754382	     -0.0012755	      0.0000000
     -0.1940058	     -0.0008022	      0.0000000
     -0.2129580	     -0.0004018	      0.0000000
     -0.2321691	     -0.0000850	      0.0000000
     -0.2514991	      0.0001356	      0.0000000
     -0.2707971	      0.0002496	      0.0000000
     -0.2899014	      0.0002472	      0.0000000
     -0.3086410	      0.0001194	      0.0000000
     -0.3268370	     -0.0001421	      0.0000000
     -0.3443045	     -0.0005436	      0.0000000
     -0.3608538	     -0.0010898	      0.0000000
     -0.3762939	     -0.0017847	      0.0000000
     -0.3904336	     -0.0026291	      0.0000000
     -0.4030851	     -0.0036212	      0.0000000
     -0.4140647	     -0.0047563	      0.0000000
     -0.4231970	     -0.0060390	      0.0000000
     -0.4303084	     -0.0074838	      0.0000000
     -0.4352125	     -0.0090922	      0.0000000
     -0.4377339	     -0.0108507	      0.0000000
     -0.4377227	     -0.0127401	      0.0000000
     -0.4350551	     -0.0147391	      0.0000000
     -0.4296359	     -0.0168242	      0.0000000
     -0.4214001	     -0.0189703	      0.0000000
     -0.4103142	     -0.0211496	      0.0000000
     -0.3963795	     -0.0233319	      0.0000000
     -0.3796335	     -0.0254848	      0.0000000
     -0.3601524	     -0.0275734	      0.0000000
     -0.3380530	     -0.0295612	      0.0000000
     -0.3134943	     -0.0314105	      0.0000000
     -0.2866786	     -0.0330828	      0.0000000
     -0.2578516	     -0.0345398	      0.0000000
     -0.2273023	     -0.0357448	      0.0000000
     -0.1953611	     -0.0366629	      0.0000000
     -0.1623976	     -0.0372633	      0.0000000
     -0.1288161	     -0.0375198	      0.0000000
     -0.0950507	     -0.0374131	      0.0000000
     -0.0615572	     -0.0369315	      0.0000000
     -0.0288057	     -0.0360739	      0.0000000
      0.0027346	     -0.0348496	      0.0000000
      0.0325992	     -0.0332869	      0.0000000
      0.0603615	     -0.0314178	      0.0000000
      0.0856302	     -0.0292763	      0.0000000
      0.1080646	     -0.0269172	      0.0000000
      0.1273844	     -0.0243979	      0.0000000
      0.1433867	     -0.0217868	      0.0000000
      0.1559498	     -0.0191524	      0.0000000
      0.1650384	     -0.0165639	      0.0000000
      0.1707055	     -0.0140874	      0.0000000
      0.1730885	     -0.0117823	      0.0000000
      0.1724038	     -0.0097002	      0.0000000
      0.1689360	     -0.0078810	      0.0000000
      0.1630257	     -0.0063522	      0.0000000
      0.1550533	     -0.0051198	      0.0000000
      0.1453936	     -0.0041597	      0.0000000
      0.1344016	     -0.0034438	      0.0000000
      0.1224179	     -0.0029529	      0.0000000
      0.1097637	     -0.0026670	      0.0000000
      0.0967321	     -0.0025643	      0.0000000
      0.0835952	     -0.0026275	      0.0000000
      0.0705997	     -0.0028469	      0.0000000
      0.0579969	     -0.0032314	      0.0000000
      0.0460315	     -0.0038009	      0.0000000
      0.0350021	     -0.0046070	      0.0000000
      0.0252078	     -0.0056498	      0.0000000
      0.0169544	     -0.0069217	      0.0000000
      0.0104860	     -0.0078446	      0.0000000
      0.0050846	     -0.0074670	      0.0000000
      0.0000000	      0.0000000	      0.0000000
      0.0000000	      0.0000000	      0.0000000
     -0.0123994	     -0.0197597	      0.0000000
     -0.0133698	     -0.0296114	      0.0000000
     -0.0068224	     -0.0350781	      0.0000000
      0.0012253	     -0.0376391	      0.0000000
      0.0115581	     -0.0383311	      0.0000000
      0.0216906	     -0.0377413	      0.0000000
      0.0313495	     -0.0362502	      0.0000000
      0.0395513	     -0.0341716	      0.0000000
      0.0460341	     -0.0317358	      0.0000000
      0.0504562	     -0.0291372	      0.0000000
      0.0527464	     -0.0265160	      0.0000000
      0.0528683	     -0.0239732	      0.0000000
      0.0508891	     -0.0215676	      0.0000000
      0.0468978	     -0.0193247	      0.0000000
      0.0410072	     -0.0172413	      0.0000000
      0.0333212	     -0.0152950	      0.0000000
      0.0239300	     -0.0134511	      0.0000000
      0.0128965	     -0.0116717	      0.0000000
      0.0002640	     -0.0099211	      0.0000000
     -0.0139530	     -0.0081657	      0.0000000
     -0.0297492	     -0.0063805	      0.0000000
     -0.0471349	     -0.0045530	      0.0000000
     -0.0661258	     -0.0026773	      0.0000000
     -0.0867370	     -0.0007538	      0.0000000
     -0.1089820	      0.0012130	      0.0000000
     -0.1328528	      0.0032066	      0.0000000
     -0.1583256	      0.0052054	      0.0000000
     -0.1853569	      0.0071864	      0.0000000
     -0.2138813	      0.0091239	      0.0000000
     -0.2438097	      0.0109901	      0.0000000
     -0.2750285	      0.0127558	      0.0000000
     -0.3073988	      0.0143905	      0.0000000
     -0.3407571	      0.0158630	      0.0000000
     -0.3749153	      0.0171420	      0.0000000
     -0.4096624	      0.0181963	      0.0000000
     -0.4447652	      0.0189954	      0.0000000
     -0.4799707	      0.0195097	      0.0000000
     -0.5150081	      0.0197111	      0.0000000
     -0.5495917	      0.0195747	      0.0000000
     -0.5834233	      0.0190778	      0.0000000
     -0.6161948	      0.0182006	      0.0000000
     -0.6475918	      0.0169268	      0.0000000
     -0.6772965	      0.0152439	      0.0000000
     -0.7049907	      0.0131441	      0.0000000
     -0.7303595	      0.0106245	      0.0000000
     -0.7530940	      0.0076873	      0.0000000
     -0.7728933	      0.0043397	      0.0000000
     -0.7894696	      0.0005925	      0.0000000
     -0.8025383	     -0.0035394	      0.0000000
     -0.8118554	     -0.0080661	      0.0000000
     -0.8171766	     -0.0129897	      0.0000000
     -0.8182822	     -0.0182689	      0.0000000
     -0.8149955	     -0.0238482	      0.0000000
     -0.8071822	     -0.0296676	      0.0000000
     -0.7947526	     -0.0356627	      0.0000000
     -0.7776632	     -0.0417650	      0.0000000
     -0.7559191	     -0.0479009	      0.0000000
     -0.7295753	     -0.0539922	      0.0000000
     -0.6987390	     -0.0599556	      0.0000000
     -0.6635716	     -0.0657038	      0.0000000
     -0.6242902	     -0.0711458	      0.0000000
     -0.5811688	     -0.0761883	      0.0000000
     -0.5345393	     -0.0807372	      0.0000000
     -0.4847913	     -0.0846989	      0.0000000
     -0.4323718	     -0.0879827	      0.0000000
     -0.3777833	     -0.0905033	      0.0000000
     -0.3215807	     -0.0921833	      0.0000000
     -0.2643672	     -0.0929561	      0.0000000
     -0.2067881	     -0.0927696	      0.0000000
     -0.1495227	     -0.0915895	      0.0000000
     -0.0932750	     -0.0894036	      0.0000000
     -0.0387607	     -0.0862245	      0.0000000
      0.0133089	     -0.0820990	      0.0000000
      0.0622301	     -0.0771072	      0.0000000
      0.1073754	     -0.0713482	      0.0000000
      0.1481708	     -0.0649366	      0.0000000
      0.1841235	     -0.0580234	      0.0000000
      0.2148397	     -0.0507760	      0.0000000
      0.2400409	     -0.0433719	      0.0000000
      0.2595705	     -0.0359949	      0.0000000
      0.2734056	     -0.0288263	      0.0000000
      0.2816555	     -0.0220362	      0.0000000
      0.2845602	     -0.0157784	      0.0000000
      0.2824782	     -0.0101800	      0.0000000
      0.2758747	     -0.0053410	      0.0000000
      0.2653031	     -0.0012965	      0.0000000
      0.2513456	      0.0019828	      0.0000000
      0.2346029	      0.0045286	      0.0000000
      0.2156692	      0.0063773	      0.0000000
      0.1951161	      0.0075789	      0.0000000
      0.1734815	      0.0081872	      0.0000000
      0.1512751	      0.0082485	      0.0000000
      0.1289687	      0.0077925	      0.0000000
      0.1070329	      0.0068136	      0.0000000
      0.0859068	      0.0052843	      0.0000000
      0.0660903	      0.0031287	      0.0000000
      0.0480007	      0.0003709	      0.0000000
      0.0321780	     -0.0029287	      0.0000000
      0.0187910	     -0.0058530	      0.0000000
      0.0082323	     -0.0071131	      0.0000000
      0.0000000	      0.0000000	      0.0000000
      0.0000000	      0.0000000	      0.0000000
     -0.0120079	     -0.0243463	      0.0000000
     -0.0126215	     -0.0403255	      0.0000000
     -0.0056215	     -0.0501982	      0.0000000
      0.0032431	     -0.0553643	      0.0000000
      0.0145866	     -0.0570708	      0.0000000
      0.0257497	     -0.0562268	      0.0000000
      0.0362590	     -0.0535504	      0.0000000
      0.0449536	     -0.0496239	      0.0000000
      0.0514349	     -0.0449138	      0.0000000
      0.0552530	     -0.0397970	      0.0000000
      0.0562624	     -0.0345577	      0.0000000
      0.0543747	     -0.0293981	      0.0000000
      0.0496252	     -0.0244434	      0.0000000
      0.0420841	     -0.0197537	      0.0000000
      0.0318549	     -0.0153359	      0.0000000
      0.0190376	     -0.0111590	      0.0000000
      0.0037235	     -0.0071666	      0.0000000
     -0.0140231	     -0.0032950	      0.0000000
     -0.0341442	      0.0005160	      0.0000000
     -0.0566129	      0.0043196	      0.0000000
     -0.0813982	      0.0081493	      0.0000000
     -0.1084901	      0.0120287	      0.0000000
     -0.1378765	      0.0159659	      0.0000000
     -0.1695409	      0.0199550	      0.0000000
     -0.2034500	      0.0239731	      0.0000000
     -0.2395488	      0.0279835	      0.0000000
     -0.2777574	      0.0319427	      0.0000000
     -0.3179662	      0.0358011	      0.0000000
     -0.3600337	      0.0395043	      0.0000000
     -0.4037856	      0.0429941	      0.0000000
     -0.4490145	      0.0462106	      0.0000000
     -0.4954807	      0.0490928	      0.0000000
     -0.5429138	      0.0515798	      0.0000000
     -0.5910148	      0.0536119	      0.0000000
     -0.6394584	      0.0551317	      0.0000000
     -0.6878966	      0.0560846	      0.0000000
     -0.7359623	      0.0564203	      0.0000000
     -0.7832730	      0.0560927	      0.0000000
     -0.8294350	      0.0550621	      0.0000000
     -0.8740474	      0.0532949	      0.0000000
     -0.9167066	      0.0507645	      0.0000000
     -0.9570104	      0.0474516	      0.0000000
     -0.9945622	      0.0433450	      0.0000000
     -1.0289751	      0.0384415	      0.0000000
     -1.0598749	      0.0327462	      0.0000000
     -1.0869036	      0.0262722	      0.0000000
     -1.1097229	      0.0190407	      0.0000000
     -1.1280126	      0.0110770	      0.0000000
     -1.1414871	      0.0024193	      0.0000000
     -1.1498613	     -0.0069140	      0.0000000
     -1.1529191	     -0.0168925	      0.0000000
     -1.1504817	     -0.0274310	      0.0000000
     -1.1424161	     -0.0384245	      0.0000000
     -1.1286372	     -0.0497619	      0.0000000
     -1.1091082	     -0.0613262	      0.0000000
     -1.0838417	     -0.0729940	      0.0000000
     -1.0529010	     -0.0846354	      0.0000000
     -1.0164014	     -0.0961136	      0.0000000
     -0.9745118	     -0.1072856	      0.0000000
     -0.9274553	     -0.1180026	      0.0000000
     -0.8755109	     -0.1281109	      0.0000000
     -0.8190143	     -0.1374539	      0.0000000
     -0.7583590	     -0.1458738	      0.0000000
     -0.6939966	     -0.1532138	      0.0000000
     -0.6264365	     -0.1593215	      0.0000000
     -0.5562454	     -0.1640522	      0.0000000
     -0.4840448	     -0.1672729	      0.0000000
     -0.4105087	     -0.1688671	      0.0000000
     -0.3363588	     -0.1687395	      0.0000000
     -0.2623579	     -0.1668216	      0.0000000
     -0.1893028	     -0.1630782	      0.0000000
     -0.1180138	     -0.1575128	      0.0000000
     -0.0493214	     -0.1501769	      0.0000000
      0.0159456	     -0.1411798	      0.0000000
      0.0769695	     -0.1306903	      0.0000000
      0.1330274	     -0.1189146	      0.0000000
      0.1834549	     -0.1060843	      0.0000000
      0.2276945	     -0.0924911	      0.0000000
      0.2653005	     -0.0784437	      0.0000000
      0.2959574	     -0.0642702	      0.0000000
      0.3195000	     -0.0503056	      0.0000000
      0.3359163	     -0.0368737	      0.0000000
      0.3453546	     -0.0242774	      0.0000000
      0.3481117	     -0.0127814	      0.0000000
      0.3446414	     -0.0026060	      0.0000000
      0.3354972	      0.0061168	      0.0000000
      0.3213996	      0.0133686	      0.0000000
      0.3030851	      0.0191712	      0.0000000
      0.2813009	      0.0235706	      0.0000000
      0.2567935	      0.0266436	      0.0000000
      0.2302843	      0.0284772	      0.0000000
      0.2024727	      0.0291522	      0.0000000
      0.1740172	      0.0287270	      0.0000000
      0.1455736	      0.0272123	      0.0000000
      0.1177433	      0.0245870	      0.0000000
      0.0912046	      0.0207746	      0.0000000
      0.0664864	      0.0158170	      0.0000000
      0.0444201	      0.0098184	      0.0000000
      0.0252541	      0.0037481	      0.0000000
      0.0105094	     -0.0011508	      0.0000000
      0.0000000	      0.0000000	      0.0000000
      0.0000000	      0.0000000	      0.0000000
     -0.0112481	     -0.0309239	      0.0000000
     -0.0114169	     -0.0525677	      0.0000000
     -0.0043595	     -0.0665356	      0.0000000
      0.0043161	     -0.0741530	      0.0000000
      0.0152536	     -0.0767517	      0.0000000
      0.0257942	     -0.0754912	      0.0000000
      0.0354023	     -0.0713772	      0.0000000
      0.0428461	     -0.0652592	      0.0000000
      0.0476552	     -0.0578441	      0.0000000
      0.0493129	     -0.0497047	      0.0000000
      0.0476173	     -0.0412815	      0.0000000
      0.0424307	     -0.0328903	      0.0000000
      0.0337468	     -0.0247334	      0.0000000
      0.0215989	     -0.0169131	      0.0000000
      0.0060633	     -0.0094514	      0.0000000
     -0.0127857	     -0.0023154	      0.0000000
     -0.0348679	      0.0045662	      0.0000000
     -0.0600945	      0.0112627	      0.0000000
     -0.0883918	      0.0178471	      0.0000000
     -0.1197021	      0.0243828	      0.0000000
     -0.1539757	      0.0309149	      0.0000000
     -0.1911670	      0.0374710	      0.0000000
     -0.2312206	      0.0440526	      0.0000000
     -0.2740644	      0.0506375	      0.0000000
     -0.3196006	      0.0571811	      0.0000000
     -0.3677015	      0.0636196	      0.0000000
     -0.4182056	      0.0698765	      0.0000000
     -0.4709137	      0.0758663	      0.0000000
     -0.5255881	      0.0814976	      0.0000000
     -0.5819527	      0.0866756	      0.0000000
     -0.6396951	      0.0913043	      0.0000000
     -0.6984685	      0.0952885	      0.0000000
     -0.7578956	      0.0985358	      0.0000000
     -0.8175719	      0.1009584	      0.0000000
     -0.8770711	      0.1024742	      0.0000000
     -0.9359494	      0.1030086	      0.0000000
     -0.9937509	      0.1024954	      0.0000000
     -1.0500134	      0.1008781	      0.0000000
     -1.1042730	      0.0981110	      0.0000000
     -1.1560698	      0.0941594	      0.0000000
     -1.2049524	      0.0890004	      0.0000000
     -1.2504828	      0.0826233	      0.0000000
     -1.2922406	      0.0750292	      0.0000000
     -1.3298266	      0.0662317	      0.0000000
     -1.3628659	      0.0562559	      0.0000000
     -1.3910108	      0.0451382	      0.0000000
     -1.4139439	      0.0329255	      0.0000000
     -1.4313752	      0.0196729	      0.0000000
     -1.4430624	      0.0054457	      0.0000000
     -1.4487680	     -0.0096977	      0.0000000
     -1.4483319	     -0.0256671	      0.0000000
     -1.4416525	     -0.0423241	      0.0000000
     -1.4286631	     -0.0595181	      0.0000000
     -1.4093428	     -0.0770900	      0.0000000
     -1.3837125	     -0.0948739	      0.0000000
     -1.3518369	     -0.1126960	      0.0000000
     -1.3138251	     -0.1303751	      0.0000000
     -1.2698319	     -0.1477219	      0.0000000
     -1.2200584	     -0.1645399	      0.0000000
     -1.1647536	     -0.1806252	      0.0000000
     -1.1042157	     -0.1957687	      0.0000000
     -1.0387936	     -0.2097565	      0.0000000
     -0.9688881	     -0.2223734	      0.0000000
     -0.8949537	     -0.2334047	      0.0000000
     -0.8174991	     -0.2426404	      0.0000000
     -0.7370877	     -0.2498790	      0.0000000
     -0.6543373	     -0.2549332	      0.0000000
     -0.5699191	     -0.2576350	      0.0000000
     -0.4845543	     -0.2578426	      0.0000000
     -0.3990113	     -0.2554475	      0.0000000
     -0.3140987	     -0.2503821	      0.0000000
     -0.2306595	     -0.2426285	      0.0000000
     -0.1495582	     -0.2322272	      0.0000000
     -0.0716778	     -0.2192897	      0.0000000
      0.0021140	     -0.2040134	      0.0000000
      0.0709170	     -0.1866625	      0.0000000
      0.1339752	     -0.1675879	      0.0000000
      0.1905702	     -0.1471698	      0.0000000
      0.2401105	     -0.1258343	      0.0000000
      0.2821160	     -0.1040553	      0.0000000
      0.3162545	     -0.0823235	      0.0000000
      0.3423513	     -0.0611257	      0.0000000
      0.3604008	     -0.0409316	      0.0000000
      0.3705636	     -0.0221699	      0.0000000
      0.3731845	     -0.0052092	      0.0000000
      0.3687324	      0.0096507	      0.0000000
      0.3579244	      0.0222718	      0.0000000
      0.3415512	      0.0326462	      0.0000000
      0.3204304	      0.0408033	      0.0000000
      0.2954130	      0.0468222	      0.0000000
      0.2673434	      0.0508083	      0.0000000
      0.2370611	      0.0528685	      0.0000000
      0.2053707	      0.0530883	      0.0000000
      0.1730816	      0.0515012	      0.0000000
      0.1409356	      0.0480973	      0.0000000
      0.1097776	      0.0428016	      0.0000000
      0.0802630	      0.0356296	      0.0000000
      0.0535271	      0.0266450	      0.0000000
      0.0299938	      0.0166107	      0.0000000
      0.0121226	      0.0065037	      0.0000000
      0.0000000	      0.0000000	      0.0000000
      0.0000000	      0.0000000	      0.0000000
     -0.0107716	     -0.0374085	      0.0000000
     -0.0107928	     -0.0643325	      0.0000000
     -0.0040985	     -0.0820133	      0.0000000
      0.0036827	     -0.0917203	      0.0000000
      0.0132458	     -0.0948786	      0.0000000
      0.0219853	     -0.0928623	      0.0000000
      0.0293832	     -0.0869408	      0.0000000
      0.0342095	     -0.0782192	      0.0000000
      0.0359794	     -0.0676400	      0.0000000
      0.0341506	     -0.0559731	      0.0000000
      0.0284908	     -0.0438184	      0.0000000
      0.0188243	     -0.0316058	      0.0000000
      0.0051103	     -0.0196142	      0.0000000
     -0.0126620	     -0.0079961	      0.0000000
     -0.0344455	      0.0032047	      0.0000000
     -0.0601756	      0.0140105	      0.0000000
     -0.0897434	      0.0244655	      0.0000000
     -0.1230568	      0.0346463	      0.0000000
     -0.1600278	      0.0446410	      0.0000000
     -0.2005743	      0.0545243	      0.0000000
     -0.2446117	      0.0643431	      0.0000000
     -0.2920443	      0.0741148	      0.0000000
     -0.3427543	      0.0838217	      0.0000000
     -0.3965956	      0.0934150	      0.0000000
     -0.4533868	      0.1028168	      0.0000000
     -0.5129080	      0.1119267	      0.0000000
     -0.5748991	      0.1206284	      0.0000000
     -0.6390578	      0.1287955	      0.0000000
     -0.7050413	      0.1362959	      0.0000000
     -0.7724685	      0.1429956	      0.0000000
     -0.8409235	      0.1487626	      0.0000000
     -0.9099604	      0.1534696	      0.0000000
     -0.9791086	      0.1569966	      0.0000000
     -1.0478787	      0.1592332	      0.0000000
     -1.1157687	      0.1600805	      0.0000000
     -1.1822702	      0.1594529	      0.0000000
     -1.2468752	      0.1572792	      0.0000000
     -1.3090815	      0.1535038	      0.0000000
     -1.3683993	      0.1480871	      0.0000000
     -1.4243553	      0.1410062	      0.0000000
     -1.4764985	      0.1322547	      0.0000000
     -1.5244034	      0.1218428	      0.0000000
     -1.5676739	      0.1097963	      0.0000000
     -1.6059456	      0.0961567	      0.0000000
     -1.6388884	      0.0809797	      0.0000000
     -1.6662068	      0.0643344	      0.0000000
     -1.6876438	      0.0463022	      0.0000000
     -1.7029740	      0.0269748	      0.0000000
     -1.7120288	      0.0064560	      0.0000000
     -1.7146396	     -0.0151538	      0.0000000
     -1.7107289	     -0.0377024	      0.0000000
     -1.7002557	     -0.0609975	      0.0000000
     -1.6832110	     -0.0848510	      0.0000000
     -1.6596203	     -0.1090631	      0.0000000
     -1.6295424	     -0.1334272	      0.0000000
     -1.5930699	     -0.1577276	      0.0000000
     -1.5503307	     -0.1817400	      0.0000000
     -1.5014886	     -0.2052309	      0.0000000
     -1.4467454	     -0.2279580	      0.0000000
     -1.3863421	     -0.2496703	      0.0000000
     -1.3205616	     -0.2701093	      0.0000000
     -1.2497307	     -0.2890104	      0.0000000
     -1.1742224	     -0.3061057	      0.0000000
     -1.0944586	     -0.3211264	      0.0000000
     -1.0109116	     -0.3338075	      0.0000000
     -0.9241067	     -0.3438922	      0.0000000
     -0.8346226	     -0.3511379	      0.0000000
     -0.7430921	     -0.3553232	      0.0000000
     -0.6502009	     -0.3562557	      0.0000000
     -0.5566860	     -0.3537805	      0.0000000
     -0.4633316	     -0.3477902	      0.0000000
     -0.3709637	     -0.3382346	      0.0000000
     -0.2804429	     -0.3251317	      0.0000000
     -0.1926546	     -0.3085813	      0.0000000
     -0.1085050	     -0.2887689	      0.0000000
     -0.0288923	     -0.2660008	      0.0000000
      0.0452649	     -0.2406693	      0.0000000
      0.1131414	     -0.2132756	      0.0000000
      0.1739978	     -0.1843629	      0.0000000
      0.2272048	     -0.1545175	      0.0000000
      0.2722707	     -0.1243886	      0.0000000
      0.3088500	     -0.0946280	      0.0000000
      0.3367630	     -0.0658795	      0.0000000
      0.3560075	     -0.0387520	      0.0000000
      0.3667697	     -0.0137861	      0.0000000
      0.3693994	      0.0085125	      0.0000000
      0.3644643	      0.0278219	      0.0000000
      0.3527643	      0.0440542	      0.0000000
      0.3351168	      0.0571940	      0.0000000
      0.3124157	      0.0672960	      0.0000000
      0.2855724	      0.0744623	      0.0000000
      0.2555174	      0.0788101	      0.0000000
      0.2231616	      0.0804420	      0.0000000
      0.1894379	      0.0794087	      0.0000000
      0.1552121	      0.0757042	      0.0000000
      0.1214868	      0.0692425	      0.0000000
      0.0890592	      0.0599679	      0.0000000
      0.0593491	      0.0478274	      0.0000000
      0.0329780	      0.0332128	      0.0000000
      0.0130944	      0.0166277	      0.0000000
      0.0000000	      0.0000000	      0.0000000
      0.0000000	      0.0000000	      0.0000000
     -0.0106180	     -0.0443708	      0.0000000
     -0.0108755	     -0.0761165	      0.0000000
     -0.0050464	     -0.0968782	      0.0000000
      0.0011716	     -0.1080396	      0.0000000
      0.0085246	     -0.1111930	      0.0000000
      0.0144846	     -0.1079235	      0.0000000
      0.0185924	     -0.0997439	      0.0000000