# vtk DataFile Version 2.0
vw
ASCII
DATASET STRUCTURED_POINTS
DIMENSIONS  102  102    1
ORIGIN      0.0000000      0.0000000      0.0000000
SPACING      0.0100000      0.0100000      0.0100000
POINT_DATA  10404
VECTORS velocity float
      0.0000000	      0.0000000	      0.0000000
      0.0000000	      0.0000000	      0.0000000
      0.0000000	      0.0000000	      0.0000000
      0.0000000	      0.0000000	      0.0000000
      0.0000000	      0.0000000	      0.0000000
      0.0000000	      0.0000000	      0.0000000
      0.0000000	      0.0000000	      0.0000000
      0.0000000	      0.0000000	      0.0000000
      0.0000000	      0.0000000	      0.0000000
      0.0000000	      0.0000000	      0.0000000
      0.0000000	      0.0000000	      0.0000000
      0.0000000	      0.0000000	      0.0000000
      0.0000000	      0.0000000	      0.0000000
      0.0000000	      0.0000000	      0.0000000
      0.0000000	      0.0000000	      0.0000000
      0.0000000	      0.0000000	      0.0000000
      0.0000000	      0.0000000	      0.0000000
      0.0000000	      0.0000000	      0.0000000
      0.0000000	      0.0000000	      0.0000000
      0.0000000	      0.0000000	      0.0000000
      0.0000000	      0.0000000	      0.0000000
      0.0000000	      0.0000000	      0.0000000
      0.0000000	      0.0000000	      0.0000000
      0.0000000	      0.0000000	      0.0000000
      0.0000000	      0.0000000	      0.0000000
      0.0000000	      0.0000000	      0.0000000
      0.0000000	      0.0000000	      0.0000000
      0.0000000	      0.0000000	      0.0000000
      0.0000000	      0.0000000	      0.0000000
      0.0000000	      0.0000000	      0.0000000
      0.0000000	      0.0000000	      0.0000000
      0.0000000	      0.0000000	      0.0000000
      0.0000000	      0.0000000	      0.0000000
      0.0000000	      0.0000000	      0.0000000
      0.0000000	      0.0000000	      0.0000000
      0.0000000	      0.0000000	      0.0000000
      0.0000000	      0.0000000	      0.0000000
      0.0000000	      0.0000000	      0.0000000
      0.0000000	      0.0000000	      0.0000000
      0.0000000	      0.0000000	      0.0000000
      0.0000000	      0.0000000	      0.0000000
      0.0000000	      0.0000000	      0.0000000
      0.0000000	      0.0000000	      0.0000000
      0.0000000	      0.0000000	      0.0000000
      0.0000000	      0.0000000	      0.0000000
      0.0000000	      0.0000000	      0.0000000
      0.0000000	      0.0000000	      0.0000000
      0.0000000	      0.0000000	      0.0000000
      0.0000000	      0.0000000	      0.0000000
      0.0000000	      0.0000000	      0.0000000
      0.0000000	      0.0000000	      0.0000000
      0.0000000	      0.0000000	      0.0000000
      0.0000000	      0.0000000	      0.0000000
      0.0000000	      0.0000000	      0.0000000
      0.0000000	      0.0000000	      0.0000000
      0.0000000	      0.0000000	      0.0000000
      0.0000000	      0.0000000	      0.0000000
      0.0000000	      0.0000000	      0.0000000
      0.0000000	      0.0000000	      0.0000000
      0.0000000	      0.0000000	      0.0000000
      0.0000000	      0.0000000	      0.0000000
      0.0000000	      0.0000000	      0.0000000
      0.0000000	      0.0000000	      0.0000000
      0.0000000	      0.0000000	      0.0000000
      0.0000000	      0.0000000	      0.0000000
      0.0000000	      0.0000000	      0.0000000
      0.0000000	      0.0000000	      0.0000000
      0.0000000	      0.0000000	      0.0000000
      0.0000000	      0.0000000	      0.0000000
      0.0000000	      0.0000000	      0.0000000
      0.0000000	      0.0000000	      0.0000000
      0.0000000	      0.0000000	      0.0000000
      0.0000000	      0.0000000	      0.0000000
      0.0000000	      0.0000000	      0.0000000
      0.0000000	      0.0000000	      0.0000000
      0.0000000	      0.0000000	      0.0000000
      0.0000000	      0.0000000	      0.0000000
      0.0000000	      0.0000000	      0.0000000
      0.0000000	      0.0000000	      0.0000000
      0.0000000	      0.0000000	      0.0000000
      0.0000000	      0.0000000	      0.0000000
      0.0000000	      0.0000000	      0.0000000
      0.0000000	      0.0000000	      0.0000000
      0.0000000	      0.0000000	      0.0000000
      0.0000000	      0.0000000	      0.0000000
      0.0000000	      0.0000000	      0.0000000
      0.0000000	      0.0000000	      0.0000000
      0.0000000	      0.0000000	      0.0000000
      0.0000000	      0.0000000	      0.0000000
      0.0000000	      0.0000000	      0.0000000
      0.0000000	      0.0000000	      0.0000000
      0.0000000	      0.0000000	      0.0000000
      0.0000000	      0.0000000	      0.0000000
      0.0000000	      0.0000000	      0.0000000
      0.0000000	      0.0000000	      0.0000000
      0.0000000	      0.0000000	      0.0000000
      0.0000000	      0.0000000	      0.0000000
      0.0000000	      0.0000000	      0.0000000
      0.0000000	      0.0000000	      0.0000000
      0.0000000	      0.0000000	      0.0000000
      0.0000000	      0.0000000	      0.0000000
      0.0000000	      0.0000000	      0.0000000
      0.0000000	      0.0000000	      0.0000000
     -0.0122002	     -0.0151753	      0.0000000
     -0.0111054	     -0.0215354	      0.0000000
     -0.0010393	     -0.0248097	      0.0000000
      0.0102496	     -0.0261858	      0.0000000
      0.0236354	     -0.0262982	      0.0000000
      0.0362830	     -0.0255558	      0.0000000
      0.0478241	     -0.0242110	      0.0000000
      0.0572113	     -0.0225327	      0.0000000
      0.0642440	     -0.0207223	      0.0000000
      0.0687289	     -0.0189536	      0.0000000
      0.0708087	     -0.0173388	      0.0000000
      0.0706927	     -0.0159427	      0.0000000
      0.0686867	     -0.0147794	      0.0000000
      0.0650857	     -0.0138274	      0.0000000
      0.0601523	     -0.0130399	      0.0000000
      0.0540821	     -0.0123601	      0.0000000
      0.0470028	     -0.0117300	      0.0000000
      0.0389678	     -0.0111008	      0.0000000
      0.0299746	     -0.0104379	      0.0000000
      0.0199787	     -0.0097207	      0.0000000
      0.0089139	     -0.0089400	      0.0000000
     -0.0032967	     -0.0080889	      0.0000000
     -0.0167271	     -0.0071689	      0.0000000
     -0.0314336	     -0.0061927	      0.0000000
     -0.0474570	     -0.0051723	      0.0000000
     -0.0648191	     -0.0041204	      0.0000000
     -0.0835228	     -0.0030492	      0.0000000
     -0.1035523	     -0.0019710	      0.0000000
     -0.1248703	     -0.0008970	      0.0000000
     -0.1474249	      0.0001599	      0.0000000
     -0.1711361	      0.0011795	      0.0000000
     -0.1959061	      0.0021455	      0.0000000
     -0.2216192	      0.0030448	      0.0000000
     -0.2481424	      0.0038636	      0.0000000
     -0.2753261	      0.0045881	      0.0000000
     -0.3030051	      0.0052044	      0.0000000
     -0.3309996	      0.0056988	      0.0000000
     -0.3591166	      0.0060580	      0.0000000
     -0.3871515	      0.0062697	      0.0000000
     -0.4148894	      0.0063222	      0.0000000
     -0.4421073	      0.0062052	      0.0000000
     -0.4685755	      0.0059093	      0.0000000
     -0.4940593	      0.0054265	      0.0000000
     -0.5183215	      0.0047505	      0.0000000
     -0.5411231	      0.0038761	      0.0000000
     -0.5622267	      0.0028000	      0.0000000
     -0.5813951	      0.0015212	      0.0000000
     -0.5984016	      0.0000411	      0.0000000
     -0.6130150	     -0.0016280	      0.0000000
     -0.6250295	     -0.0034704	      0.0000000
     -0.6342396	     -0.0055136	      0.0000000
     -0.6404163	     -0.0077970	      0.0000000
     -0.6433238	     -0.0103038	      0.0000000
     -0.6427680	     -0.0129983	      0.0000000
     -0.6385943	     -0.0158486	      0.0000000
     -0.6306826	     -0.0188227	      0.0000000
     -0.6189499	     -0.0218882	      0.0000000
     -0.6033500	     -0.0250101	      0.0000000
     -0.5838772	     -0.0281503	      0.0000000
     -0.5605691	     -0.0312670	      0.0000000
     -0.5335100	     -0.0343148	      0.0000000
     -0.5028346	     -0.0372445	      0.0000000
     -0.4687316	     -0.0400044	      0.0000000
     -0.4314462	     -0.0425401	      0.0000000
     -0.3912827	     -0.0447960	      0.0000000
     -0.3486057	     -0.0467165	      0.0000000
     -0.3038404	     -0.0482474	      0.0000000
     -0.2574711	     -0.0493379	      0.0000000
     -0.2100383	     -0.0499423	      0.0000000
     -0.1621330	     -0.0500229	      0.0000000
     -0.1143890	     -0.0495522	      0.0000000
     -0.0674724	     -0.0485164	      0.0000000
     -0.0220666	     -0.0469169	      0.0000000
      0.0211443	     -0.0447820	      0.0000000
      0.0614970	     -0.0421607	      0.0000000
      0.0983885	     -0.0390973	      0.0000000
      0.1312715	     -0.0356638	      0.0000000
      0.1596859	     -0.0319529	      0.0000000
      0.1832788	     -0.0280657	      0.0000000
      0.2018193	     -0.0241162	      0.0000000
      0.2152144	     -0.0202206	      0.0000000
      0.2235144	     -0.0164918	      0.0000000
      0.2269103	     -0.0130353	      0.0000000
      0.2257328	     -0.0099449	      0.0000000
      0.2204306	     -0.0072935	      0.0000000
      0.2115626	     -0.0051347	      0.0000000
      0.1997364	     -0.0034446	      0.0000000
      0.1855373	     -0.0021661	      0.0000000
      0.1695288	     -0.0012793	      0.0000000
      0.1522610	     -0.0007500	      0.0000000
      0.1342346	     -0.0005380	      0.0000000
      0.1159113	     -0.0006027	      0.0000000
      0.0976957	     -0.0009117	      0.0000000
      0.0799793	     -0.0014582	      0.0000000
      0.0631190	     -0.0022566	      0.0000000
      0.0475474	     -0.0033743	      0.0000000
      0.0336773	     -0.0048313	      0.0000000
      0.0220248	     -0.0066629	      0.0000000
      0.0129618	     -0.0082059	      0.0000000
      0.0059304	     -0.0083541	      0.0000000
      0.0000000	      0.0000000	      0.0000000
      0.0000000	      0.0000000	      0.0000000
     -0.0123140	     -0.0248795	      0.0000000
     -0.0092476	     -0.0394598	      0.0000000
      0.0047677	     -0.0481814	      0.0000000
      0.0216668	     -0.0524351	      0.0000000
      0.0415913	     -0.0532704	      0.0000000
      0.0607542	     -0.0515715	      0.0000000
      0.0782052	     -0.0480653	      0.0000000
      0.0923566	     -0.0434643	      0.0000000
      0.1027142	     -0.0383573	      0.0000000
      0.1088968	     -0.0332308	      0.0000000
      0.1109992	     -0.0284227	      0.0000000
      0.1092578	     -0.0241343	      0.0000000
      0.1040651	     -0.0204345	      0.0000000
      0.0958240	     -0.0172906	      0.0000000
      0.0849071	     -0.0145957	      0.0000000
      0.0716056	     -0.0122183	      0.0000000
      0.0561158	     -0.0100122	      0.0000000
      0.0385386	     -0.0078458	      0.0000000
      0.0188921	     -0.0056199	      0.0000000
     -0.0028633	     -0.0032675	      0.0000000
     -0.0268037	     -0.0007578	      0.0000000
     -0.0530169	      0.0019186	      0.0000000
     -0.0815620	      0.0047384	      0.0000000
     -0.1124832	      0.0076685	      0.0000000
     -0.1457942	      0.0106731	      0.0000000
     -0.1814756	      0.0137132	      0.0000000
     -0.2194719	      0.0167485	      0.0000000
     -0.2596912	      0.0197379	      0.0000000
     -0.3020046	      0.0226403	      0.0000000
     -0.3462461	      0.0254105	      0.0000000
     -0.3922166	      0.0280015	      0.0000000
     -0.4396867	      0.0303717	      0.0000000
     -0.4883961	      0.0324816	      0.0000000
     -0.5380567	      0.0342930	      0.0000000
     -0.5883556	      0.0357691	      0.0000000
     -0.6389576	      0.0368745	      0.0000000
     -0.6895095	      0.0375768	      0.0000000
     -0.7396426	      0.0378459	      0.0000000
     -0.7889767	      0.0376553	      0.0000000
     -0.8371234	      0.0369821	      0.0000000
     -0.8836898	      0.0358069	      0.0000000
     -0.9282814	      0.0341145	      0.0000000
     -0.9705056	      0.0318939	      0.0000000
     -1.0099749	      0.0291381	      0.0000000
     -1.0463094	      0.0258444	      0.0000000
     -1.0791400	      0.0220143	      0.0000000
     -1.1081097	      0.0176545	      0.0000000
     -1.1328790	      0.0127755	      0.0000000
     -1.1531164	      0.0073965	      0.0000000
     -1.1685152	      0.0015403	      0.0000000
     -1.1787428	     -0.0048072	      0.0000000
     -1.1835307	     -0.0116777	      0.0000000
     -1.1826439	     -0.0190295	      0.0000000
     -1.1758930	     -0.0267737	      0.0000000
     -1.1631444	     -0.0348302	      0.0000000
     -1.1443107	     -0.0431176	      0.0000000
     -1.1193567	     -0.0515524	      0.0000000
     -1.0882996	     -0.0600460	      0.0000000
     -1.0512120	     -0.0685031	      0.0000000
     -1.0082250	     -0.0768213	      0.0000000
     -0.9595316	     -0.0848906	      0.0000000
     -0.9053900	     -0.0925941	      0.0000000
     -0.8461269	     -0.0998087	      0.0000000
     -0.7821402	     -0.1064068	      0.0000000
     -0.7139020	     -0.1122578	      0.0000000
     -0.6419599	     -0.1172308	      0.0000000
     -0.5669374	     -0.1211977	      0.0000000
     -0.4895331	     -0.1240369	      0.0000000
     -0.4105182	     -0.1256375	      0.0000000
     -0.3307313	     -0.1259042	      0.0000000
     -0.2510716	     -0.1247630	      0.0000000
     -0.1724876	     -0.1221671	      0.0000000
     -0.0959668	     -0.1181045	      0.0000000
     -0.0225071	     -0.1126067	      0.0000000
      0.0468708	     -0.1057619	      0.0000000
      0.1112122	     -0.0977051	      0.0000000
      0.1696442	     -0.0885916	      0.0000000
      0.2213916	     -0.0786310	      0.0000000
      0.2658068	     -0.0680697	      0.0000000
      0.3023944	     -0.0571826	      0.0000000
      0.3308451	     -0.0462667	      0.0000000
      0.3510500	     -0.0356200	      0.0000000
      0.3631080	     -0.0255334	      0.0000000
      0.3673370	     -0.0162761	      0.0000000
      0.3642490	     -0.0080794	      0.0000000
      0.3545668	     -0.0011107	      0.0000000
      0.3391183	      0.0046061	      0.0000000
      0.3188659	      0.0091184	      0.0000000
      0.2947406	      0.0124576	      0.0000000
      0.2676833	      0.0146961	      0.0000000
      0.2385815	      0.0159271	      0.0000000
      0.2082793	      0.0162491	      0.0000000
      0.1775473	      0.0157461	      0.0000000
      0.1471314	      0.0144544	      0.0000000
      0.1177060	      0.0123665	      0.0000000
      0.0900273	      0.0093847	      0.0000000
      0.0647200	      0.0054967	      0.0000000
      0.0426641	      0.0006889	      0.0000000
      0.0241836	     -0.0039810	      0.0000000
      0.0101746	     -0.0070161	      0.0000000
      0.0000000	      0.0000000	      0.0000000
      0.0000000	      0.0000000	      0.0000000
     -0.0108894	     -0.0337598	      0.0000000
     -0.0058246	     -0.0581565	      0.0000000
      0.0107461	     -0.0737975	      0.0000000
      0.0305913	     -0.0818724	      0.0000000
      0.0535374	     -0.0836923	      0.0000000
      0.0754305	     -0.0806619	      0.0000000
      0.0950116	     -0.0741260	      0.0000000
      0.1104309	     -0.0653700	      0.0000000
      0.1210115	     -0.0555064	      0.0000000
      0.1262449	     -0.0454421	      0.0000000
      0.1261547	     -0.0358288	      0.0000000
      0.1209441	     -0.0270657	      0.0000000
      0.1110006	     -0.0193126	      0.0000000
      0.0967403	     -0.0125390	      0.0000000
      0.0785485	     -0.0065814	      0.0000000
      0.0567469	     -0.0012080	      0.0000000
      0.0315453	      0.0038310	      0.0000000
      0.0030971	      0.0087595	      0.0000000
     -0.0285564	      0.0137507	      0.0000000
     -0.0634017	      0.0189184	      0.0000000
     -0.1014690	      0.0243168	      0.0000000
     -0.1427847	      0.0299417	      0.0000000
     -0.1873571	      0.0357502	      0.0000000
     -0.2351639	      0.0416804	      0.0000000
     -0.2861389	      0.0476572	      0.0000000
     -0.3401680	      0.0535977	      0.0000000
     -0.3970872	      0.0594163	      0.0000000
     -0.4566828	      0.0650261	      0.0000000
     -0.5186930	      0.0703409	      0.0000000
     -0.5828106	      0.0752744	      0.0000000
     -0.6486890	      0.0797417	      0.0000000
     -0.7159454	      0.0836633	      0.0000000
     -0.7841638	      0.0869651	      0.0000000
     -0.8528998	      0.0895783	      0.0000000
     -0.9216863	      0.0914396	      0.0000000
     -0.9900390	      0.0924917	      0.0000000
     -1.0574614	      0.0926845	      0.0000000
     -1.1234503	      0.0919752	      0.0000000
     -1.1875011	      0.0903285	      0.0000000
     -1.2491125	      0.0877175	      0.0000000
     -1.3077908	      0.0841231	      0.0000000
     -1.3630541	      0.0795341	      0.0000000
     -1.4144363	      0.0739476	      0.0000000
     -1.4614895	      0.0673679	      0.0000000
     -1.5037874	      0.0598070	      0.0000000
     -1.5409277	      0.0512839	      0.0000000
     -1.5725325	      0.0418243	      0.0000000
     -1.5982520	      0.0314589	      0.0000000
     -1.6177566	      0.0202230	      0.0000000
     -1.6307535	      0.0081513	      0.0000000
     -1.6369533	     -0.0047519	      0.0000000
     -1.6360854	     -0.0184491	      0.0000000
     -1.6280679	     -0.0328163	      0.0000000
     -1.6127986	     -0.0477157	      0.0000000
     -1.5902432	     -0.0630129	      0.0000000
     -1.5604035	     -0.0785713	      0.0000000
     -1.5233313	     -0.0942493	      0.0000000
     -1.4791269	     -0.1098976	      0.0000000
     -1.4279431	     -0.1253574	      0.0000000
     -1.3699870	     -0.1404596	      0.0000000
     -1.3055235	     -0.1550244	      0.0000000
     -1.2348778	     -0.1688621	      0.0000000
     -1.1584396	     -0.1817736	      0.0000000
     -1.0766651	     -0.1935528	      0.0000000
     -0.9900809	     -0.2039887	      0.0000000
     -0.8992859	     -0.2128690	      0.0000000
     -0.8049530	     -0.2199845	      0.0000000
     -0.7078302	     -0.2251339	      0.0000000
     -0.6087394	     -0.2281305	      0.0000000
     -0.5085744	     -0.2288090	      0.0000000
     -0.4082964	     -0.2270337	      0.0000000
     -0.3089269	     -0.2227072	      0.0000000
     -0.2115377	     -0.2157822	      0.0000000
     -0.1172421	     -0.2062698	      0.0000000
     -0.0271634	     -0.1942665	      0.0000000
      0.0575328	     -0.1799542	      0.0000000
      0.1357703	     -0.1636127	      0.0000000
      0.2065596	     -0.1455676	      0.0000000
      0.2690246	     -0.1261997	      0.0000000
      0.3224276	     -0.1059739	      0.0000000
      0.3662092	     -0.0853962	      0.0000000
      0.4000186	     -0.0649930	      0.0000000
      0.4237281	     -0.0452978	      0.0000000
      0.4374578	     -0.0268236	      0.0000000
      0.4415702	     -0.0100342	      0.0000000
      0.4366745	      0.0046741	      0.0000000
      0.4236216	      0.0170959	      0.0000000
      0.4035401	      0.0272093	      0.0000000
      0.3775282	      0.0350326	      0.0000000
      0.3467571	      0.0406554	      0.0000000
      0.3123721	      0.0442151	      0.0000000
      0.2754989	      0.0458680	      0.0000000
      0.2371971	      0.0457581	      0.0000000
      0.1985075	      0.0439688	      0.0000000
      0.1603728	      0.0405197	      0.0000000
      0.1238346	      0.0353184	      0.0000000
      0.0897136	      0.0283577	      0.0000000
      0.0593000	      0.0196498	      0.0000000
      0.0330518	      0.0102623	      0.0000000
      0.0133545	      0.0016274	      0.0000000
      0.0000000	      0.0000000	      0.0000000
      0.0000000	      0.0000000	      0.0000000
     -0.0093247	     -0.0458971	      0.0000000
     -0.0026523	     -0.0799570	      0.0000000
      0.0152937	     -0.1021877	      0.0000000
      0.0360383	     -0.1137132	      0.0000000
      0.0593629	     -0.1160842	      0.0000000
      0.0810215	     -0.1111955	      0.0000000
      0.0996798	     -0.1009883	      0.0000000
      0.1134113	     -0.0873329	      0.0000000
      0.1214768	     -0.0718743	      0.0000000
      0.1233073	     -0.0559548	      0.0000000
      0.1188718	     -0.0405515	      0.0000000
      0.1083194	     -0.0262707	      0.0000000
      0.0919843	     -0.0133741	      0.0000000
      0.0702269	     -0.0018405	      0.0000000
      0.0433799	      0.0085502	      0.0000000
      0.0118009	      0.0180862	      0.0000000
     -0.0242746	      0.0270941	      0.0000000
     -0.0646663	      0.0358755	      0.0000000
     -0.1092687	      0.0446694	      0.0000000
     -0.1580173	      0.0536235	      0.0000000
     -0.2108605	      0.0628036	      0.0000000
     -0.2677323	      0.0721959	      0.0000000
     -0.3285367	      0.0817276	      0.0000000
     -0.3931326	      0.0912913	      0.0000000
     -0.4613242	      0.1007591	      0.0000000
     -0.5328583	      0.1099929	      0.0000000
     -0.6074241	      0.1188514	      0.0000000
     -0.6846564	      0.1271942	      0.0000000
     -0.7641389	      0.1348842	      0.0000000
     -0.8454100	      0.1417895	      0.0000000
     -0.9279703	      0.1477854	      0.0000000
     -1.0112888	      0.1527573	      0.0000000
     -1.0948089	      0.1566010	      0.0000000
     -1.1779560	      0.1592242	      0.0000000
     -1.2601444	      0.1605461	      0.0000000
     -1.3407850	      0.1604988	      0.0000000
     -1.4192916	      0.1590275	      0.0000000
     -1.4950879	      0.1560906	      0.0000000
     -1.5676122	      0.1516598	      0.0000000
     -1.6363238	      0.1457200	      0.0000000
     -1.7007059	      0.1382685	      0.0000000
     -1.7602705	      0.1293149	      0.0000000
     -1.8145602	      0.1188799	      0.0000000
     -1.8631512	      0.1069946	      0.0000000
     -1.9056541	      0.0936999	      0.0000000
     -1.9417153	      0.0790452	      0.0000000
     -1.9710169	      0.0630875	      0.0000000
     -1.9932776	      0.0458888	      0.0000000
     -2.0082453	      0.0275163	      0.0000000
     -2.0157283	      0.0080373	      0.0000000
     -2.0155050	     -0.0125111	      0.0000000
     -2.0074945	     -0.0339854	      0.0000000
     -1.9917117	     -0.0561751	      0.0000000
     -1.9681642	     -0.0789160	      0.0000000
     -1.9369035	     -0.1020324	      0.0000000
     -1.8980082	     -0.1253462	      0.0000000
     -1.8515928	     -0.1486696	      0.0000000
     -1.7978087	     -0.1718050	      0.0000000
     -1.7368476	     -0.1945419	      0.0000000
     -1.6689441	     -0.2166569	      0.0000000
     -1.5943793	     -0.2379129	      0.0000000
     -1.5134843	     -0.2580590	      0.0000000
     -1.4266441	     -0.2768321	      0.0000000
     -1.3343015	     -0.2939587	      0.0000000
     -1.2369613	     -0.3091574	      0.0000000
     -1.1351936	     -0.3221435	      0.0000000
     -1.0296375	     -0.3326336	      0.0000000
     -0.9210030	     -0.3403520	      0.0000000
     -0.8100725	     -0.3450386	      0.0000000
     -0.6977007	     -0.3464574	      0.0000000
     -0.5848129	     -0.3444071	      0.0000000
     -0.4724007	     -0.3387322	      0.0000000
     -0.3615159	     -0.3293357	      0.0000000
     -0.2532605	     -0.3161946	      0.0000000
     -0.1487796	     -0.2993730	      0.0000000
     -0.0492361	     -0.2790622	      0.0000000
      0.0441659	     -0.2555696	      0.0000000
      0.1302738	     -0.2293441	      0.0000000
      0.2080531	     -0.2009060	      0.0000000
      0.2765667	     -0.1708416	      0.0000000
      0.3350422	     -0.1398541	      0.0000000
      0.3828840	     -0.1086818	      0.0000000
      0.4197024	     -0.0780942	      0.0000000
      0.4453596	     -0.0488581	      0.0000000
      0.4599551	     -0.0216940	      0.0000000
      0.4638969	      0.0027243	      0.0000000
      0.4577807	      0.0238751	      0.0000000
      0.4427430	      0.0415665	      0.0000000
      0.4198958	      0.0557609	      0.0000000
      0.3904930	      0.0665057	      0.0000000
      0.3558123	      0.0739408	      0.0000000
      0.3171539	      0.0782500	      0.0000000
      0.2757795	      0.0796200	      0.0000000
      0.2329562	      0.0781793	      0.0000000
      0.1898465	      0.0739782	      0.0000000
      0.1477459	      0.0669359	      0.0000000
      0.1076755	      0.0570044	      0.0000000
      0.0713403	      0.0441227	      0.0000000
      0.0394402	      0.0290455	      0.0000000
      0.0155937	      0.0128223	      0.0000000
      0.0000000	      0.0000000	      0.0000000
      0.0000000	      0.0000000	      0.0000000
     -0.0083750	     -0.0586817	      0.0000000
     -0.0009242	     -0.1022143	      0.0000000
      0.0172357	     -0.1305349	      0.0000000
      0.0372950	     -0.1448318	      0.0000000
      0.0590284	     -0.1470156	      0.0000000
      0.0782071	     -0.1394956	      0.0000000
      0.0935537	     -0.1248237	      0.0000000
      0.1031897	     -0.1054580	      0.0000000
      0.1064124	     -0.0835714	      0.0000000
      0.1026609	     -0.0609323	      0.0000000
      0.0918883	     -0.0388307	      0.0000000
      0.0741951	     -0.0180741	      0.0000000
      0.0498416	      0.0009925	      0.0000000
      0.0190947	      0.0183900	      0.0000000
     -0.0176385	      0.0342837	      0.0000000
     -0.0600445	      0.0490150	      0.0000000
     -0.1078431	      0.0629983	      0.0000000
     -0.1608380	      0.0766006	      0.0000000
     -0.2188663	      0.0901056	      0.0000000
     -0.2817812	      0.1036805	      0.0000000
     -0.3494217	      0.1173785	      0.0000000
     -0.4215922	      0.1311534	      0.0000000
     -0.4980509	      0.1448874	      0.0000000
     -0.5785002	      0.1584178	      0.0000000
     -0.6625829	      0.1715567	      0.0000000
     -0.7498820	      0.1841058	      0.0000000
     -0.8399239	      0.1958656	      0.0000000
     -0.9321843	      0.2066424	      0.0000000
     -1.0260948	      0.2162519	      0.0000000
     -1.1210515	      0.2245223	      0.0000000
     -1.2164241	      0.2312967	      0.0000000
     -1.3115649	      0.2364361	      0.0000000
     -1.4058172	      0.2398199	      0.0000000
     -1.4985241	      0.2413470	      0.0000000
     -1.5890373	      0.2409363	      0.0000000
     -1.6767242	      0.2385269	      0.0000000
     -1.7609756	      0.2340777	      0.0000000
     -1.8412114	      0.2275674	      0.0000000
     -1.9168854	      0.2189929	      0.0000000
     -1.9874894	      0.2083690	      0.0000000
     -2.0525562	      0.1957265	      0.0000000
     -2.1116614	      0.1811111	      0.0000000
     -2.1644244	      0.1645815	      0.0000000
     -2.2105085	      0.1462085	      0.0000000
     -2.2496209	      0.1260727	      0.0000000
     -2.2815111	      0.1042632	      0.0000000
     -2.3059697	      0.0808761	      0.0000000
     -2.3228275	      0.0560121	      0.0000000
     -2.3319488	      0.0297782	      0.0000000
     -2.3332689	      0.0022696	      0.0000000
     -2.3266413	     -0.0264003	      0.0000000
     -2.3122050	     -0.0559876	      0.0000000
     -2.2899955	     -0.0862575	      0.0000000
     -2.2600943	     -0.1170231	      0.0000000
     -2.2225923	     -0.1480835	      0.0000000
     -2.1776008	     -0.1792312	      0.0000000
     -2.1252517	     -0.2102461	      0.0000000
     -2.0657020	     -0.2408947	      0.0000000
     -1.9991362	     -0.2709275	      0.0000000
     -1.9257706	     -0.3000781	      0.0000000
     -1.8458574	     -0.3280623	      0.0000000
     -1.7596888	     -0.3545782	      0.0000000
     -1.6676027	     -0.3793071	      0.0000000
     -1.5699869	     -0.4019154	      0.0000000
     -1.4672845	     -0.4220577	      0.0000000
     -1.3599989	     -0.4393813	      0.0000000
     -1.2486983	     -0.4535317	      0.0000000
     -1.1340194	     -0.4641605	      0.0000000
     -1.0166705	     -0.4709336	      0.0000000
     -0.8974327	     -0.4735422	      0.0000000
     -0.7771605	     -0.4717147	      0.0000000
     -0.6567792	     -0.4652302	      0.0000000
     -0.5372811	     -0.4539342	      0.0000000
     -0.4197188	     -0.4377545	      0.0000000
     -0.3051962	     -0.4167220	      0.0000000
     -0.1948566	     -0.3909876	      0.0000000
     -0.0898861	     -0.3608602	      0.0000000
      0.0085361	     -0.3268101	      0.0000000
      0.0991503	     -0.2894371	      0.0000000
      0.1809407	     -0.2495246	      0.0000000
      0.2529184	     -0.2079050	      0.0000000
      0.3142954	     -0.1654931	      0.0000000
      0.3644468	     -0.1232884	      0.0000000
      0.4029819	     -0.0823021	      0.0000000
      0.4297327	     -0.0435238	      0.0000000
      0.4448552	     -0.0078919	      0.0000000
      0.4486568	      0.0236857	      0.0000000
      0.4420214	      0.0507081	      0.0000000
      0.4260152	      0.0730263	      0.0000000
      0.4018429	      0.0905915	      0.0000000
      0.3708096	      0.1034952	      0.0000000
      0.3342878	      0.1119073	      0.0000000
      0.2936553	      0.1160247	      0.0000000
      0.2503337	      0.1159992	      0.0000000
      0.2056576	      0.1118936	      0.0000000
      0.1611424	      0.1036212	      0.0000000
      0.1180140	      0.0910403	      0.0000000
      0.0783511	      0.0739289	      0.0000000
      0.0431235	      0.0525113	      0.0000000
      0.0168305	      0.0271779	      0.0000000
      0.0000000	      0.0000000	      0.0000000
      0.0000000	      0.0000000	      0.0000000
     -0.0080146	     -0.0723170	      0.0000000
     -0.0006620	     -0.1247964	      0.0000000
      0.0164938	     -0.1582565	      0.0000000
      0.0343707	     -0.1742293	      0.0000000
      0.0527575	     -0.1751731	      0.0000000
      0.0675191	     -0.1640707	      0.0000000
      0.0775178	     -0.1440979	      0.0000000