# vtk DataFile Version 2.0
vw
ASCII
DATASET STRUCTURED_POINTS
DIMENSIONS  102  102    1
ORIGIN      0.0000000      0.0000000      0.0000000
SPACING      0.0100000      0.0100000      0.0100000
POINT_DATA  10404
VECTORS velocity float
      0.0000000	      0.0000000	      0.0000000
      0.0000000	      0.0000000	      0.0000000
      0.0000000	      0.0000000	      0.0000000
      0.0000000	      0.0000000	      0.0000000
      0.0000000	      0.0000000	      0.0000000
      0.0000000	      0.0000000	      0.0000000
      0.0000000	      0.0000000	      0.0000000
      0.0000000	      0.0000000	      0.0000000
      0.0000000	      0.0000000	      0.0000000
      0.0000000	      0.0000000	      0.0000000
      0.0000000	      0.0000000	      0.0000000
      0.0000000	      0.0000000	      0.0000000
      0.0000000	      0.0000000	      0.0000000
      0.0000000	      0.0000000	      0.0000000
      0.0000000	      0.0000000	      0.0000000
      0.0000000	      0.0000000	      0.0000000
      0.0000000	      0.0000000	      0.0000000
      0.0000000	      0.0000000	      0.0000000
      0.0000000	      0.0000000	      0.0000000
      0.0000000	      0.0000000	      0.0000000
      0.0000000	      0.0000000	      0.0000000
      0.0000000	      0.0000000	      0.0000000
      0.0000000	      0.0000000	      0.0000000
      0.0000000	      0.0000000	      0.0000000
      0.0000000	      0.0000000	      0.0000000
      0.0000000	      0.0000000	      0.0000000
      0.0000000	      0.0000000	      0.0000000
      0.0000000	      0.0000000	      0.0000000
      0.0000000	      0.0000000	      0.0000000
      0.0000000	      0.0000000	      0.0000000
      0.0000000	      0.0000000	      0.0000000
      0.0000000	      0.0000000	      0.0000000
      0.0000000	      0.0000000	      0.0000000
      0.0000000	      0.0000000	      0.0000000
      0.0000000	      0.0000000	      0.0000000
      0.0000000	      0.0000000	      0.0000000
      0.0000000	      0.0000000	      0.0000000
      0.0000000	      0.0000000	      0.0000000
      0.0000000	      0.0000000	      0.0000000
      0.0000000	      0.0000000	      0.0000000
      0.0000000	      0.0000000	      0.0000000
      0.0000000	      0.0000000	      0.0000000
      0.0000000	      0.0000000	      0.0000000
      0.0000000	      0.0000000	      0.0000000
      0.0000000	      0.0000000	      0.0000000
      0.0000000	      0.0000000	      0.0000000
      0.0000000	      0.0000000	      0.0000000
      0.0000000	      0.0000000	      0.0000000
      0.0000000	      0.0000000	      0.0000000
      0.0000000	      0.0000000	      0.0000000
      0.0000000	      0.0000000	      0.0000000
      0.0000000	      0.0000000	      0.0000000
      0.0000000	      0.0000000	      0.0000000
      0.0000000	      0.0000000	      0.0000000
      0.0000000	      0.0000000	      0.0000000
      0.0000000	      0.0000000	      0.0000000
      0.0000000	      0.0000000	      0.0000000
      0.0000000	      0.0000000	      0.0000000
      0.0000000	      0.0000000	      0.0000000
      0.0000000	      0.0000000	      0.0000000
      0.0000000	      0.0000000	      0.0000000
      0.0000000	      0.0000000	      0.0000000
      0.0000000	      0.0000000	      0.0000000
      0.0000000	      0.0000000	      0.0000000
      0.0000000	      0.0000000	      0.0000000
      0.0000000	      0.0000000	      0.0000000
      0.0000000	      0.0000000	      0.0000000
      0.0000000	      0.0000000	      0.0000000
      0.0000000	      0.0000000	      0.0000000
      0.0000000	      0.0000000	      0.0000000
      0.0000000	      0.0000000	      0.0000000
      0.0000000	      0.0000000	      0.0000000
      0.0000000	      0.0000000	      0.0000000
      0.0000000	      0.0000000	      0.0000000
      0.0000000	      0.0000000	      0.0000000
      0.0000000	      0.0000000	      0.0000000
      0.0000000	      0.0000000	      0.0000000
      0.0000000	      0.0000000	      0.0000000
      0.0000000	      0.0000000	      0.0000000
      0.0000000	      0.0000000	      0.0000000
      0.0000000	      0.0000000	      0.0000000
      0.0000000	      0.0000000	      0.0000000
      0.0000000	      0.0000000	      0.0000000
      0.0000000	      0.0000000	      0.0000000
      0.0000000	      0.0000000	      0.0000000
      0.0000000	      0.0000000	      0.0000000
      0.0000000	      0.0000000	      0.0000000
      0.0000000	      0.0000000	      0.0000000
      0.0000000	      0.0000000	      0.0000000
      0.0000000	      0.0000000	      0.0000000
      0.0000000	      0.0000000	      0.0000000
      0.0000000	      0.0000000	      0.0000000
      0.0000000	      0.0000000	      0.0000000
      0.0000000	      0.0000000	      0.0000000
      0.0000000	      0.0000000	      0.0000000
      0.0000000	      0.0000000	      0.0000000
      0.0000000	      0.0000000	      0.0000000
      0.0000000	      0.0000000	      0.0000000
      0.0000000	      0.0000000	      0.0000000
      0.0000000	      0.0000000	      0.0000000
      0.0000000	      0.0000000	      0.0000000
      0.0000000	      0.0000000	      0.0000000
      0.0000000	      0.0000000	      0.0000000
      0.0003825	      0.0005795	      0.0000000
      0.0001516	      0.0009047	      0.0000000
     -0.0005289	      0.0010993	      0.0000000
     -0.0012947	      0.0011889	      0.0000000
     -0.0022194	      0.0012211	      0.0000000
     -0.0031254	      0.0012247	      0.0000000
     -0.0040746	      0.0012152	      0.0000000
     -0.0049885	      0.0012039	      0.0000000
     -0.0059130	      0.0011917	      0.0000000
     -0.0068102	      0.0011813	      0.0000000
     -0.0077082	      0.0011709	      0.0000000
     -0.0085862	      0.0011613	      0.0000000
     -0.0094600	      0.0011512	      0.0000000
     -0.0103173	      0.0011410	      0.0000000
     -0.0111667	      0.0011300	      0.0000000
     -0.0120008	      0.0011186	      0.0000000
     -0.0128240	      0.0011064	      0.0000000
     -0.0136319	      0.0010936	      0.0000000
     -0.0144267	      0.0010800	      0.0000000
     -0.0152054	      0.0010658	      0.0000000
     -0.0159689	      0.0010508	      0.0000000
     -0.0167154	      0.0010351	      0.0000000
     -0.0174450	      0.0010188	      0.0000000
     -0.0181564	      0.0010017	      0.0000000
     -0.0188493	      0.0009840	      0.0000000
     -0.0195228	      0.0009657	      0.0000000
     -0.0201764	      0.0009467	      0.0000000
     -0.0208093	      0.0009271	      0.0000000
     -0.0214210	      0.0009069	      0.0000000
     -0.0220108	      0.0008861	      0.0000000
     -0.0225782	      0.0008648	      0.0000000
     -0.0231226	      0.0008429	      0.0000000
     -0.0236435	      0.0008205	      0.0000000
     -0.0241403	      0.0007975	      0.0000000
     -0.0246125	      0.0007741	      0.0000000
     -0.0250597	      0.0007502	      0.0000000
     -0.0254813	      0.0007259	      0.0000000
     -0.0258769	      0.0007011	      0.0000000
     -0.0262462	      0.0006760	      0.0000000
     -0.0265887	      0.0006504	      0.0000000
     -0.0269041	      0.0006245	      0.0000000
     -0.0271919	      0.0005983	      0.0000000
     -0.0274519	      0.0005718	      0.0000000
     -0.0276838	      0.0005450	      0.0000000
     -0.0278873	      0.0005179	      0.0000000
     -0.0280621	      0.0004906	      0.0000000
     -0.0282080	      0.0004631	      0.0000000
     -0.0283249	      0.0004354	      0.0000000
     -0.0284124	      0.0004075	      0.0000000
     -0.0284706	      0.0003795	      0.0000000
     -0.0284992	      0.0003514	      0.0000000
     -0.0284981	      0.0003232	      0.0000000
     -0.0284674	      0.0002950	      0.0000000
     -0.0284069	      0.0002668	      0.0000000
     -0.0283166	      0.0002386	      0.0000000
     -0.0281966	      0.0002104	      0.0000000
     -0.0280468	      0.0001823	      0.0000000
     -0.0278674	      0.0001543	      0.0000000
     -0.0276585	      0.0001264	      0.0000000
     -0.0274201	      0.0000986	      0.0000000
     -0.0271524	      0.0000711	      0.0000000
     -0.0268556	      0.0000437	      0.0000000
     -0.0265299	      0.0000165	      0.0000000
     -0.0261756	     -0.0000104	      0.0000000
     -0.0257930	     -0.0000369	      0.0000000
     -0.0253823	     -0.0000632	      0.0000000
     -0.0249440	     -0.0000890	      0.0000000
     -0.0244784	     -0.0001144	      0.0000000
     -0.0239859	     -0.0001395	      0.0000000
     -0.0234670	     -0.0001640	      0.0000000
     -0.0229222	     -0.0001881	      0.0000000
     -0.0223520	     -0.0002116	      0.0000000
     -0.0217568	     -0.0002346	      0.0000000
     -0.0211374	     -0.0002570	      0.0000000
     -0.0204943	     -0.0002787	      0.0000000
     -0.0198282	     -0.0002999	      0.0000000
     -0.0191396	     -0.0003203	      0.0000000
     -0.0184294	     -0.0003401	      0.0000000
     -0.0176982	     -0.0003591	      0.0000000
     -0.0169469	     -0.0003774	      0.0000000
     -0.0161760	     -0.0003949	      0.0000000
     -0.0153869	     -0.0004116	      0.0000000
     -0.0145796	     -0.0004275	      0.0000000
     -0.0137560	     -0.0004425	      0.0000000
     -0.0129156	     -0.0004568	      0.0000000
     -0.0120612	     -0.0004700	      0.0000000
     -0.0111913	     -0.0004826	      0.0000000
     -0.0103098	     -0.0004941	      0.0000000
     -0.0094137	     -0.0005051	      0.0000000
     -0.0085089	     -0.0005151	      0.0000000
     -0.0075895	     -0.0005250	      0.0000000
     -0.0066651	     -0.0005338	      0.0000000
     -0.0057255	     -0.0005425	      0.0000000
     -0.0047881	     -0.0005480	      0.0000000
     -0.0038392	     -0.0005489	      0.0000000
     -0.0029162	     -0.0005336	      0.0000000
     -0.0020144	     -0.0004936	      0.0000000
     -0.0012170	     -0.0004016	      0.0000000
     -0.0005498	     -0.0002579	      0.0000000
     -0.0001409	     -0.0000626	      0.0000000
      0.0000000	      0.0000000	      0.0000000
      0.0000000	      0.0000000	      0.0000000
      0.0002928	      0.0011016	      0.0000000
     -0.0001927	      0.0018828	      0.0000000
     -0.0012462	      0.0023855	      0.0000000
     -0.0024860	      0.0026571	      0.0000000
     -0.0039585	      0.0027779	      0.0000000
     -0.0054447	      0.0028163	      0.0000000
     -0.0069991	      0.0028122	      0.0000000
     -0.0085204	      0.0027938	      0.0000000
     -0.0100562	      0.0027688	      0.0000000
     -0.0115585	      0.0027441	      0.0000000
     -0.0130585	      0.0027184	      0.0000000
     -0.0145305	      0.0026931	      0.0000000
     -0.0159925	      0.0026664	      0.0000000
     -0.0174296	      0.0026390	      0.0000000
     -0.0188514	      0.0026098	      0.0000000
     -0.0202489	      0.0025793	      0.0000000
     -0.0216270	      0.0025468	      0.0000000
     -0.0229799	      0.0025126	      0.0000000
     -0.0243098	      0.0024765	      0.0000000
     -0.0256130	      0.0024387	      0.0000000
     -0.0268903	      0.0023990	      0.0000000
     -0.0281389	      0.0023576	      0.0000000
     -0.0293587	      0.0023143	      0.0000000
     -0.0305478	      0.0022694	      0.0000000
     -0.0317057	      0.0022226	      0.0000000
     -0.0328307	      0.0021743	      0.0000000
     -0.0339221	      0.0021243	      0.0000000
     -0.0349786	      0.0020727	      0.0000000
     -0.0359993	      0.0020195	      0.0000000
     -0.0369831	      0.0019649	      0.0000000
     -0.0379291	      0.0019088	      0.0000000
     -0.0388364	      0.0018512	      0.0000000
     -0.0397040	      0.0017924	      0.0000000
     -0.0405311	      0.0017322	      0.0000000
     -0.0413168	      0.0016708	      0.0000000
     -0.0420604	      0.0016083	      0.0000000
     -0.0427611	      0.0015445	      0.0000000
     -0.0434182	      0.0014797	      0.0000000
     -0.0440309	      0.0014139	      0.0000000
     -0.0445988	      0.0013471	      0.0000000
     -0.0451211	      0.0012795	      0.0000000
     -0.0455972	      0.0012109	      0.0000000
     -0.0460268	      0.0011417	      0.0000000
     -0.0464092	      0.0010716	      0.0000000
     -0.0467441	      0.0010010	      0.0000000
     -0.0470311	      0.0009297	      0.0000000
     -0.0472697	      0.0008579	      0.0000000
     -0.0474598	      0.0007857	      0.0000000
     -0.0476009	      0.0007130	      0.0000000
     -0.0476929	      0.0006400	      0.0000000
     -0.0477356	      0.0005668	      0.0000000
     -0.0477288	      0.0004934	      0.0000000
     -0.0476724	      0.0004198	      0.0000000
     -0.0475665	      0.0003462	      0.0000000
     -0.0474109	      0.0002727	      0.0000000
     -0.0472058	      0.0001992	      0.0000000
     -0.0469511	      0.0001260	      0.0000000
     -0.0466471	      0.0000529	      0.0000000
     -0.0462938	     -0.0000199	      0.0000000
     -0.0458915	     -0.0000923	      0.0000000
     -0.0454405	     -0.0001643	      0.0000000
     -0.0449412	     -0.0002357	      0.0000000
     -0.0443939	     -0.0003064	      0.0000000
     -0.0437992	     -0.0003765	      0.0000000
     -0.0431574	     -0.0004458	      0.0000000
     -0.0424691	     -0.0005142	      0.0000000
     -0.0417350	     -0.0005816	      0.0000000
     -0.0409556	     -0.0006480	      0.0000000
     -0.0401317	     -0.0007133	      0.0000000
     -0.0392640	     -0.0007774	      0.0000000
     -0.0383534	     -0.0008403	      0.0000000
     -0.0374006	     -0.0009018	      0.0000000
     -0.0364065	     -0.0009619	      0.0000000
     -0.0353723	     -0.0010205	      0.0000000
     -0.0342987	     -0.0010775	      0.0000000
     -0.0331871	     -0.0011328	      0.0000000
     -0.0320383	     -0.0011865	      0.0000000
     -0.0308537	     -0.0012383	      0.0000000
     -0.0296342	     -0.0012883	      0.0000000
     -0.0283816	     -0.0013362	      0.0000000
     -0.0270965	     -0.0013823	      0.0000000
     -0.0257811	     -0.0014262	      0.0000000
     -0.0244358	     -0.0014680	      0.0000000
     -0.0230632	     -0.0015076	      0.0000000
     -0.0216633	     -0.0015450	      0.0000000
     -0.0202395	     -0.0015801	      0.0000000
     -0.0187907	     -0.0016130	      0.0000000
     -0.0173221	     -0.0016436	      0.0000000
     -0.0158303	     -0.0016722	      0.0000000
     -0.0143232	     -0.0016983	      0.0000000
     -0.0127942	     -0.0017229	      0.0000000
     -0.0112562	     -0.0017441	      0.0000000
     -0.0096978	     -0.0017623	      0.0000000
     -0.0081430	     -0.0017701	      0.0000000
     -0.0065784	     -0.0017615	      0.0000000
     -0.0050558	     -0.0017098	      0.0000000
     -0.0035739	     -0.0015917	      0.0000000
     -0.0022475	     -0.0013481	      0.0000000
     -0.0011068	     -0.0009695	      0.0000000
     -0.0003479	     -0.0004330	      0.0000000
      0.0000000	      0.0000000	      0.0000000
      0.0000000	      0.0000000	      0.0000000
      0.0001889	      0.0017197	      0.0000000
     -0.0004785	      0.0030960	      0.0000000
     -0.0017860	      0.0040127	      0.0000000
     -0.0033236	      0.0045440	      0.0000000
     -0.0051305	      0.0048016	      0.0000000
     -0.0069704	      0.0049002	      0.0000000
     -0.0088920	      0.0049134	      0.0000000
     -0.0107850	      0.0048904	      0.0000000
     -0.0126952	      0.0048513	      0.0000000
     -0.0145703	      0.0048080	      0.0000000
     -0.0164414	      0.0047618	      0.0000000
     -0.0182808	      0.0047146	      0.0000000
     -0.0201065	      0.0046649	      0.0000000
     -0.0219026	      0.0046132	      0.0000000
     -0.0236788	      0.0045584	      0.0000000
     -0.0254252	      0.0045007	      0.0000000
     -0.0271466	      0.0044396	      0.0000000
     -0.0288369	      0.0043753	      0.0000000
     -0.0304979	      0.0043076	      0.0000000
     -0.0321256	      0.0042365	      0.0000000
     -0.0337204	      0.0041621	      0.0000000
     -0.0352792	      0.0040843	      0.0000000
     -0.0368018	      0.0040033	      0.0000000
     -0.0382858	      0.0039190	      0.0000000
     -0.0397304	      0.0038315	      0.0000000
     -0.0411337	      0.0037410	      0.0000000
     -0.0424948	      0.0036475	      0.0000000
     -0.0438120	      0.0035510	      0.0000000
     -0.0450842	      0.0034517	      0.0000000
     -0.0463101	      0.0033497	      0.0000000
     -0.0474886	      0.0032450	      0.0000000
     -0.0486185	      0.0031377	      0.0000000
     -0.0496986	      0.0030279	      0.0000000
     -0.0507278	      0.0029158	      0.0000000
     -0.0517053	      0.0028014	      0.0000000
     -0.0526299	      0.0026848	      0.0000000
     -0.0535008	      0.0025662	      0.0000000
     -0.0543171	      0.0024456	      0.0000000
     -0.0550779	      0.0023232	      0.0000000
     -0.0557825	      0.0021990	      0.0000000
     -0.0564301	      0.0020732	      0.0000000
     -0.0570201	      0.0019458	      0.0000000
     -0.0575518	      0.0018171	      0.0000000
     -0.0580247	      0.0016870	      0.0000000
     -0.0584381	      0.0015558	      0.0000000
     -0.0587917	      0.0014235	      0.0000000
     -0.0590850	      0.0012903	      0.0000000
     -0.0593176	      0.0011563	      0.0000000
     -0.0594893	      0.0010215	      0.0000000
     -0.0595997	      0.0008862	      0.0000000
     -0.0596485	      0.0007504	      0.0000000
     -0.0596358	      0.0006143	      0.0000000
     -0.0595613	      0.0004780	      0.0000000
     -0.0594250	      0.0003416	      0.0000000
     -0.0592270	      0.0002053	      0.0000000
     -0.0589671	      0.0000691	      0.0000000
     -0.0586456	     -0.0000667	      0.0000000
     -0.0582626	     -0.0002021	      0.0000000
     -0.0578185	     -0.0003370	      0.0000000
     -0.0573134	     -0.0004711	      0.0000000
     -0.0567478	     -0.0006043	      0.0000000
     -0.0561222	     -0.0007365	      0.0000000
     -0.0554370	     -0.0008675	      0.0000000
     -0.0546929	     -0.0009972	      0.0000000
     -0.0538903	     -0.0011254	      0.0000000
     -0.0530301	     -0.0012520	      0.0000000
     -0.0521129	     -0.0013768	      0.0000000
     -0.0511395	     -0.0014998	      0.0000000
     -0.0501109	     -0.0016207	      0.0000000
     -0.0490279	     -0.0017395	      0.0000000
     -0.0478916	     -0.0018559	      0.0000000
     -0.0467030	     -0.0019698	      0.0000000
     -0.0454633	     -0.0020811	      0.0000000
     -0.0441736	     -0.0021897	      0.0000000
     -0.0428352	     -0.0022954	      0.0000000
     -0.0414495	     -0.0023980	      0.0000000
     -0.0400178	     -0.0024974	      0.0000000
     -0.0385416	     -0.0025936	      0.0000000
     -0.0370223	     -0.0026862	      0.0000000
     -0.0354616	     -0.0027753	      0.0000000
     -0.0338609	     -0.0028608	      0.0000000
     -0.0322224	     -0.0029423	      0.0000000
     -0.0305469	     -0.0030200	      0.0000000
     -0.0288375	     -0.0030937	      0.0000000
     -0.0270943	     -0.0031633	      0.0000000
     -0.0253214	     -0.0032286	      0.0000000
     -0.0235177	     -0.0032900	      0.0000000
     -0.0216890	     -0.0033469	      0.0000000
     -0.0198323	     -0.0034000	      0.0000000
     -0.0179561	     -0.0034484	      0.0000000
     -0.0160540	     -0.0034930	      0.0000000
     -0.0141401	     -0.0035310	      0.0000000
     -0.0122033	     -0.0035609	      0.0000000
     -0.0102703	     -0.0035705	      0.0000000
     -0.0083279	     -0.0035453	      0.0000000
     -0.0064350	     -0.0034424	      0.0000000
     -0.0045904	     -0.0032154	      0.0000000
     -0.0029274	     -0.0027733	      0.0000000
     -0.0014753	     -0.0020764	      0.0000000
     -0.0004873	     -0.0010773	      0.0000000
      0.0000000	      0.0000000	      0.0000000
      0.0000000	      0.0000000	      0.0000000
      0.0000891	      0.0025177	      0.0000000
     -0.0007132	      0.0045085	      0.0000000
     -0.0021796	      0.0058513	      0.0000000
     -0.0038867	      0.0066490	      0.0000000
     -0.0058749	      0.0070527	      0.0000000
     -0.0079054	      0.0072204	      0.0000000
     -0.0100259	      0.0072576	      0.0000000
     -0.0121229	      0.0072350	      0.0000000
     -0.0142406	      0.0071843	      0.0000000
     -0.0163244	      0.0071234	      0.0000000
     -0.0184044	      0.0070562	      0.0000000
     -0.0204517	      0.0069858	      0.0000000
     -0.0224839	      0.0069111	      0.0000000
     -0.0244841	      0.0068326	      0.0000000
     -0.0264620	      0.0067492	      0.0000000
     -0.0284071	      0.0066612	      0.0000000
     -0.0303242	      0.0065680	      0.0000000
     -0.0322067	      0.0064699	      0.0000000
     -0.0340565	      0.0063665	      0.0000000
     -0.0358690	      0.0062580	      0.0000000
     -0.0376446	      0.0061443	      0.0000000
     -0.0393801	      0.0060256	      0.0000000
     -0.0410749	      0.0059020	      0.0000000
     -0.0427266	      0.0057734	      0.0000000
     -0.0443342	      0.0056401	      0.0000000
     -0.0458957	      0.0055021	      0.0000000
     -0.0474099	      0.0053596	      0.0000000
     -0.0488750	      0.0052126	      0.0000000
     -0.0502899	      0.0050613	      0.0000000
     -0.0516530	      0.0049059	      0.0000000
     -0.0529631	      0.0047465	      0.0000000
     -0.0542188	      0.0045833	      0.0000000
     -0.0554190	      0.0044163	      0.0000000
     -0.0565625	      0.0042457	      0.0000000
     -0.0576481	      0.0040717	      0.0000000
     -0.0586747	      0.0038945	      0.0000000
     -0.0596414	      0.0037142	      0.0000000
     -0.0605472	      0.0035310	      0.0000000
     -0.0613911	      0.0033449	      0.0000000
     -0.0621723	      0.0031563	      0.0000000
     -0.0628901	      0.0029653	      0.0000000
     -0.0635436	      0.0027720	      0.0000000
     -0.0641322	      0.0025765	      0.0000000
     -0.0646552	      0.0023792	      0.0000000
     -0.0651121	      0.0021801	      0.0000000
     -0.0655024	      0.0019795	      0.0000000
     -0.0658255	      0.0017774	      0.0000000
     -0.0660811	      0.0015742	      0.0000000
     -0.0662689	      0.0013699	      0.0000000
     -0.0663886	      0.0011648	      0.0000000
     -0.0664398	      0.0009590	      0.0000000
     -0.0664226	      0.0007527	      0.0000000
     -0.0663367	      0.0005462	      0.0000000
     -0.0661821	      0.0003395	      0.0000000
     -0.0659588	      0.0001330	      0.0000000
     -0.0656670	     -0.0000732	      0.0000000
     -0.0653066	     -0.0002790	      0.0000000
     -0.0648780	     -0.0004841	      0.0000000
     -0.0643814	     -0.0006882	      0.0000000
     -0.0638173	     -0.0008912	      0.0000000
     -0.0631861	     -0.0010928	      0.0000000
     -0.0624883	     -0.0012928	      0.0000000
     -0.0617243	     -0.0014911	      0.0000000
     -0.0608949	     -0.0016873	      0.0000000
     -0.0600007	     -0.0018813	      0.0000000
     -0.0590425	     -0.0020729	      0.0000000
     -0.0580211	     -0.0022618	      0.0000000
     -0.0569374	     -0.0024479	      0.0000000
     -0.0557924	     -0.0026308	      0.0000000
     -0.0545871	     -0.0028105	      0.0000000
     -0.0533226	     -0.0029867	      0.0000000
     -0.0520001	     -0.0031591	      0.0000000
     -0.0506210	     -0.0033276	      0.0000000
     -0.0491864	     -0.0034919	      0.0000000
     -0.0476978	     -0.0036519	      0.0000000
     -0.0461567	     -0.0038072	      0.0000000
     -0.0445645	     -0.0039578	      0.0000000
     -0.0429231	     -0.0041033	      0.0000000
     -0.0412338	     -0.0042436	      0.0000000
     -0.0394987	     -0.0043786	      0.0000000
     -0.0377191	     -0.0045079	      0.0000000
     -0.0358976	     -0.0046315	      0.0000000
     -0.0340351	     -0.0047492	      0.0000000
     -0.0321350	     -0.0048608	      0.0000000
     -0.0301974	     -0.0049663	      0.0000000
     -0.0282269	     -0.0050653	      0.0000000
     -0.0262224	     -0.0051582	      0.0000000
     -0.0241902	     -0.0052443	      0.0000000
     -0.0221272	     -0.0053244	      0.0000000
     -0.0200428	     -0.0053972	      0.0000000
     -0.0179304	     -0.0054634	      0.0000000
     -0.0158054	     -0.0055191	      0.0000000
     -0.0136563	     -0.0055609	      0.0000000
     -0.0115120	     -0.0055718	      0.0000000
     -0.0093580	     -0.0055289	      0.0000000
     -0.0072574	     -0.0053732	      0.0000000
     -0.0052053	     -0.0050339	      0.0000000
     -0.0033459	     -0.0043860	      0.0000000
     -0.0017041	     -0.0033465	      0.0000000
     -0.0005725	     -0.0018304	      0.0000000
      0.0000000	      0.0000000	      0.0000000
      0.0000000	      0.0000000	      0.0000000
      0.0000368	      0.0033779	      0.0000000
     -0.0008440	      0.0060189	      0.0000000
     -0.0024081	      0.0078080	      0.0000000
     -0.0042123	      0.0088857	      0.0000000
     -0.0063016	      0.0094457	      0.0000000
     -0.0084341	      0.0096904	      0.0000000
     -0.0106600	      0.0097574	      0.0000000
     -0.0128641	      0.0097387	      0.0000000
     -0.0150912	      0.0096783	      0.0000000
     -0.0172850	      0.0096003	      0.0000000
     -0.0194758	      0.0095118	      0.0000000
     -0.0216335	      0.0094171	      0.0000000
     -0.0237757	      0.0093157	      0.0000000
     -0.0258849	      0.0092083	      0.0000000
     -0.0279706	      0.0090940	      0.0000000
     -0.0300222	      0.0089731	      0.0000000
     -0.0320441	      0.0088450	      0.0000000
     -0.0340296	      0.0087098	      0.0000000
     -0.0359804	      0.0085675	      0.0000000
     -0.0378920	      0.0084182	      0.0000000
     -0.0397645	      0.0082618	      0.0000000
     -0.0415947	      0.0080984	      0.0000000
     -0.0433818	      0.0079283	      0.0000000
     -0.0451233	      0.0077514	      0.0000000
     -0.0468181	      0.0075680	      0.0000000
     -0.0484642	      0.0073783	      0.0000000
     -0.0500603	      0.0071823	      0.0000000
     -0.0516045	      0.0069803	      0.0000000
     -0.0530956	      0.0067724	      0.0000000
     -0.0545319	      0.0065588	      0.0000000
     -0.0559122	      0.0063398	      0.0000000
     -0.0572351	      0.0061156	      0.0000000
     -0.0584993	      0.0058862	      0.0000000
     -0.0597035	      0.0056521	      0.0000000
     -0.0608466	      0.0054132	      0.0000000
     -0.0619275	      0.0051700	      0.0000000
     -0.0629450	      0.0049226	      0.0000000
     -0.0638983	      0.0046712	      0.0000000
     -0.0647862	      0.0044160	      0.0000000
     -0.0656080	      0.0041574	      0.0000000
     -0.0663629	      0.0038954	      0.0000000
     -0.0670499	      0.0036304	      0.0000000
     -0.0676685	      0.0033625	      0.0000000
     -0.0682179	      0.0030921	      0.0000000
     -0.0686976	      0.0028193	      0.0000000
     -0.0691070	      0.0025444	      0.0000000
     -0.0694456	      0.0022676	      0.0000000
     -0.0697131	      0.0019892	      0.0000000
     -0.0699091	      0.0017094	      0.0000000
     -0.0700333	      0.0014285	      0.0000000
     -0.0700855	      0.0011468	      0.0000000
     -0.0700655	      0.0008644	      0.0000000
     -0.0699731	      0.0005817	      0.0000000
     -0.0698085	      0.0002988	      0.0000000
     -0.0695715	      0.0000161	      0.0000000
     -0.0692622	     -0.0002661	      0.0000000
     -0.0688809	     -0.0005477	      0.0000000
     -0.0684278	     -0.0008282	      0.0000000
     -0.0679032	     -0.0011075	      0.0000000
     -0.0673076	     -0.0013851	      0.0000000
     -0.0666412	     -0.0016608	      0.0000000
     -0.0659047	     -0.0019344	      0.0000000
     -0.0650987	     -0.0022055	      0.0000000
     -0.0642237	     -0.0024738	      0.0000000
     -0.0632806	     -0.0027392	      0.0000000
     -0.0622700	     -0.0030012	      0.0000000
     -0.0611929	     -0.0032595	      0.0000000
     -0.0600503	     -0.0035140	      0.0000000
     -0.0588431	     -0.0037643	      0.0000000
     -0.0575725	     -0.0040100	      0.0000000
     -0.0562396	     -0.0042510	      0.0000000
     -0.0548456	     -0.0044868	      0.0000000
     -0.0533919	     -0.0047173	      0.0000000
     -0.0518799	     -0.0049420	      0.0000000
     -0.0503110	     -0.0051608	      0.0000000
     -0.0486869	     -0.0053733	      0.0000000
     -0.0470090	     -0.0055793	      0.0000000
     -0.0452792	     -0.0057784	      0.0000000
     -0.0434990	     -0.0059705	      0.0000000
     -0.0416705	     -0.0061551	      0.0000000
     -0.0397953	     -0.0063322	      0.0000000
     -0.0378759	     -0.0065014	      0.0000000
     -0.0359134	     -0.0066625	      0.0000000
     -0.0339111	     -0.0068153	      0.0000000
     -0.0318696	     -0.0069596	      0.0000000
     -0.0297932	     -0.0070952	      0.0000000
     -0.0276813	     -0.0072222	      0.0000000
     -0.0255402	     -0.0073400	      0.0000000
     -0.0233668	     -0.0074491	      0.0000000
     -0.0211710	     -0.0075482	      0.0000000
     -0.0189461	     -0.0076374	      0.0000000
     -0.0167081	     -0.0077117	      0.0000000
     -0.0144450	     -0.0077656	      0.0000000
     -0.0121870	     -0.0077776	      0.0000000
     -0.0099178	     -0.0077153	      0.0000000
     -0.0077036	     -0.0075043	      0.0000000
     -0.0055355	     -0.0070468	      0.0000000
     -0.0035663	     -0.0061823	      0.0000000
     -0.0018180	     -0.0047749	      0.0000000
     -0.0006103	     -0.0026911	      0.0000000
      0.0000000	      0.0000000	      0.0000000
      0.0000000	      0.0000000	      0.0000000
      0.0000042	      0.0043032	      0.0000000
     -0.0009271	      0.0076067	      0.0000000
     -0.0025514	      0.0098406	      0.0000000
     -0.0044114	      0.0111905	      0.0000000
     -0.0065549	      0.0119020	      0.0000000
     -0.0087394	      0.0122211	      0.0000000
     -0.0110178	      0.0123175	      0.0000000