# vtk DataFile Version 2.0
vw
ASCII
DATASET STRUCTURED_POINTS
DIMENSIONS  102  102    1
ORIGIN      0.0000000      0.0000000      0.0000000
SPACING      0.0100000      0.0100000      0.0100000
POINT_DATA  10404
VECTORS velocity float
      0.0000000	      0.0000000	      0.0000000
      0.0000000	      0.0000000	      0.0000000
      0.0000000	      0.0000000	      0.0000000
      0.0000000	      0.0000000	      0.0000000
      0.0000000	      0.0000000	      0.0000000
      0.0000000	      0.0000000	      0.0000000
      0.0000000	      0.0000000	      0.0000000
      0.0000000	      0.0000000	      0.0000000
      0.0000000	      0.0000000	      0.0000000
      0.0000000	      0.0000000	      0.0000000
      0.0000000	      0.0000000	      0.0000000
      0.0000000	      0.0000000	      0.0000000
      0.0000000	      0.0000000	      0.0000000
      0.0000000	      0.0000000	      0.0000000
      0.0000000	      0.0000000	      0.0000000
      0.0000000	      0.0000000	      0.0000000
      0.0000000	      0.0000000	      0.0000000
      0.0000000	      0.0000000	      0.0000000
      0.0000000	      0.0000000	      0.0000000
      0.0000000	      0.0000000	      0.0000000
      0.0000000	      0.0000000	      0.0000000
      0.0000000	      0.0000000	      0.0000000
      0.0000000	      0.0000000	      0.0000000
      0.0000000	      0.0000000	      0.0000000
      0.0000000	      0.0000000	      0.0000000
      0.0000000	      0.0000000	      0.0000000
      0.0000000	      0.0000000	      0.0000000
      0.0000000	      0.0000000	      0.0000000
      0.0000000	      0.0000000	      0.0000000
      0.0000000	      0.0000000	      0.0000000
      0.0000000	      0.0000000	      0.0000000
      0.0000000	      0.0000000	      0.0000000
      0.0000000	      0.0000000	      0.0000000
      0.0000000	      0.0000000	      0.0000000
      0.0000000	      0.0000000	      0.0000000
      0.0000000	      0.0000000	      0.0000000
      0.0000000	      0.0000000	      0.0000000
      0.0000000	      0.0000000	      0.0000000
      0.0000000	      0.0000000	      0.0000000
      0.0000000	      0.0000000	      0.0000000
      0.0000000	      0.0000000	      0.0000000
      0.0000000	      0.0000000	      0.0000000
      0.0000000	      0.0000000	      0.0000000
      0.0000000	      0.0000000	      0.0000000
      0.0000000	      0.0000000	      0.0000000
      0.0000000	      0.0000000	      0.0000000
      0.0000000	      0.0000000	      0.0000000
      0.0000000	      0.0000000	      0.0000000
      0.0000000	      0.0000000	      0.0000000
      0.0000000	      0.0000000	      0.0000000
      0.0000000	      0.0000000	      0.0000000
      0.0000000	      0.0000000	      0.0000000
      0.0000000	      0.0000000	      0.0000000
      0.0000000	      0.0000000	      0.0000000
      0.0000000	      0.0000000	      0.0000000
      0.0000000	      0.0000000	      0.0000000
      0.0000000	      0.0000000	      0.0000000
      0.0000000	      0.0000000	      0.0000000
      0.0000000	      0.0000000	      0.0000000
      0.0000000	      0.0000000	      0.0000000
      0.0000000	      0.0000000	      0.0000000
      0.0000000	      0.0000000	      0.0000000
      0.0000000	      0.0000000	      0.0000000
      0.0000000	      0.0000000	      0.0000000
      0.0000000	      0.0000000	      0.0000000
      0.0000000	      0.0000000	      0.0000000
      0.0000000	      0.0000000	      0.0000000
      0.0000000	      0.0000000	      0.0000000
      0.0000000	      0.0000000	      0.0000000
      0.0000000	      0.0000000	      0.0000000
      0.0000000	      0.0000000	      0.0000000
      0.0000000	      0.0000000	      0.0000000
      0.0000000	      0.0000000	      0.0000000
      0.0000000	      0.0000000	      0.0000000
      0.0000000	      0.0000000	      0.0000000
      0.0000000	      0.0000000	      0.0000000
      0.0000000	      0.0000000	      0.0000000
      0.0000000	      0.0000000	      0.0000000
      0.0000000	      0.0000000	      0.0000000
      0.0000000	      0.0000000	      0.0000000
      0.0000000	      0.0000000	      0.0000000
      0.0000000	      0.0000000	      0.0000000
      0.0000000	      0.0000000	      0.0000000
      0.0000000	      0.0000000	      0.0000000
      0.0000000	      0.0000000	      0.0000000
      0.0000000	      0.0000000	      0.0000000
      0.0000000	      0.0000000	      0.0000000
      0.0000000	      0.0000000	      0.0000000
      0.0000000	      0.0000000	      0.0000000
      0.0000000	      0.0000000	      0.0000000
      0.0000000	      0.0000000	      0.0000000
      0.0000000	      0.0000000	      0.0000000
      0.0000000	      0.0000000	      0.0000000
      0.0000000	      0.0000000	      0.0000000
      0.0000000	      0.0000000	      0.0000000
      0.0000000	      0.0000000	      0.0000000
      0.0000000	      0.0000000	      0.0000000
      0.0000000	      0.0000000	      0.0000000
      0.0000000	      0.0000000	      0.0000000
      0.0000000	      0.0000000	      0.0000000
      0.0000000	      0.0000000	      0.0000000
      0.0000000	      0.0000000	      0.0000000
      0.0000000	      0.0000000	      0.0000000
     -0.0121571	     -0.0151242	      0.0000000
     -0.0110677	     -0.0214600	      0.0000000
     -0.0010415	     -0.0247202	      0.0000000
      0.0102000	     -0.0260894	      0.0000000
      0.0235292	     -0.0262008	      0.0000000
      0.0361230	     -0.0254617	      0.0000000
      0.0476158	     -0.0241234	      0.0000000
      0.0569648	     -0.0224532	      0.0000000
      0.0639706	     -0.0206514	      0.0000000
      0.0684399	     -0.0188906	      0.0000000
      0.0705143	     -0.0172824	      0.0000000
      0.0704013	     -0.0158912	      0.0000000
      0.0684043	     -0.0147311	      0.0000000
      0.0648163	     -0.0137810	      0.0000000
      0.0598983	     -0.0129944	      0.0000000
      0.0538448	     -0.0123148	      0.0000000
      0.0467827	     -0.0116847	      0.0000000
      0.0387655	     -0.0110557	      0.0000000
      0.0297909	     -0.0103935	      0.0000000
      0.0198149	     -0.0096775	      0.0000000
      0.0087721	     -0.0088984	      0.0000000
     -0.0034141	     -0.0080494	      0.0000000
     -0.0168172	     -0.0071317	      0.0000000
     -0.0314929	     -0.0061583	      0.0000000
     -0.0474817	     -0.0051408	      0.0000000
     -0.0648056	     -0.0040920	      0.0000000
     -0.0834673	     -0.0030239	      0.0000000
     -0.1034510	     -0.0019489	      0.0000000
     -0.1247195	     -0.0008782	      0.0000000
     -0.1472212	      0.0001756	      0.0000000
     -0.1708759	      0.0011919	      0.0000000
     -0.1955866	      0.0021549	      0.0000000
     -0.2212376	      0.0030513	      0.0000000
     -0.2476964	      0.0038674	      0.0000000
     -0.2748138	      0.0045896	      0.0000000
     -0.3024251	      0.0052037	      0.0000000
     -0.3303509	      0.0056963	      0.0000000
     -0.3583989	      0.0060542	      0.0000000
     -0.3863648	      0.0062648	      0.0000000
     -0.4140344	      0.0063167	      0.0000000
     -0.4411853	      0.0061995	      0.0000000
     -0.4675882	      0.0059039	      0.0000000
     -0.4930092	      0.0054220	      0.0000000
     -0.5172116	      0.0047473	      0.0000000
     -0.5399568	      0.0038748	      0.0000000
     -0.5610080	      0.0028011	      0.0000000
     -0.5801288	      0.0015252	      0.0000000
     -0.5970928	      0.0000486	      0.0000000
     -0.6116692	     -0.0016167	      0.0000000
     -0.6236527	     -0.0034550	      0.0000000
     -0.6328384	     -0.0054933	      0.0000000
     -0.6389978	     -0.0077710	      0.0000000
     -0.6418959	     -0.0102715	      0.0000000
     -0.6413387	     -0.0129591	      0.0000000
     -0.6371724	     -0.0158021	      0.0000000
     -0.6292769	     -0.0187685	      0.0000000
     -0.6175695	     -0.0218260	      0.0000000
     -0.6020044	     -0.0249395	      0.0000000
     -0.5825758	     -0.0280712	      0.0000000
     -0.5593215	     -0.0311793	      0.0000000
     -0.5323258	     -0.0342184	      0.0000000
     -0.5017233	     -0.0371397	      0.0000000
     -0.4677024	     -0.0398913	      0.0000000
     -0.4305081	     -0.0424192	      0.0000000
     -0.3904441	     -0.0446678	      0.0000000
     -0.3478744	     -0.0465818	      0.0000000
     -0.3032233	     -0.0481072	      0.0000000
     -0.2569743	     -0.0491932	      0.0000000
     -0.2096664	     -0.0497946	      0.0000000
     -0.1618892	     -0.0498737	      0.0000000
     -0.1142750	     -0.0494032	      0.0000000
     -0.0674878	     -0.0483694	      0.0000000
     -0.0222091	     -0.0467739	      0.0000000
      0.0208793	     -0.0446450	      0.0000000
      0.0611164	     -0.0420314	      0.0000000
      0.0979013	     -0.0389778	      0.0000000
      0.1306892	     -0.0355556	      0.0000000
      0.1590218	     -0.0318574	      0.0000000
      0.1825479	     -0.0279839	      0.0000000
      0.2010381	     -0.0240485	      0.0000000
      0.2144000	     -0.0201671	      0.0000000
      0.2226842	     -0.0164519	      0.0000000
      0.2260814	     -0.0130079	      0.0000000
      0.2249210	     -0.0099284	      0.0000000
      0.2196501	     -0.0072860	      0.0000000
      0.2108253	     -0.0051339	      0.0000000
      0.1990514	     -0.0034484	      0.0000000
      0.1849118	     -0.0021731	      0.0000000
      0.1689675	     -0.0012877	      0.0000000
      0.1517661	     -0.0007584	      0.0000000
      0.1338064	     -0.0005450	      0.0000000
      0.1155484	     -0.0006074	      0.0000000
      0.0973953	     -0.0009135	      0.0000000
      0.0797375	     -0.0014565	      0.0000000
      0.0629311	     -0.0022510	      0.0000000
      0.0474079	     -0.0033643	      0.0000000
      0.0335797	     -0.0048162	      0.0000000
      0.0219618	     -0.0066419	      0.0000000
      0.0129251	     -0.0081801	      0.0000000
      0.0059137	     -0.0083280	      0.0000000
      0.0000000	      0.0000000	      0.0000000
      0.0000000	      0.0000000	      0.0000000
     -0.0122721	     -0.0247940	      0.0000000
     -0.0092213	     -0.0393174	      0.0000000
      0.0047353	     -0.0480020	      0.0000000
      0.0215613	     -0.0522360	      0.0000000
      0.0414001	     -0.0530667	      0.0000000
      0.0604801	     -0.0513755	      0.0000000
      0.0778564	     -0.0478860	      0.0000000
      0.0919480	     -0.0433066	      0.0000000
      0.1022628	     -0.0382229	      0.0000000
      0.1084206	     -0.0331187	      0.0000000
      0.1105145	     -0.0283296	      0.0000000
      0.1087787	     -0.0240563	      0.0000000
      0.1036026	     -0.0203672	      0.0000000
      0.0953863	     -0.0172303	      0.0000000
      0.0844998	     -0.0145395	      0.0000000
      0.0712328	     -0.0121645	      0.0000000
      0.0557805	     -0.0099603	      0.0000000
      0.0382436	     -0.0077959	      0.0000000
      0.0186404	     -0.0055728	      0.0000000
     -0.0030680	     -0.0032244	      0.0000000
     -0.0269567	     -0.0007200	      0.0000000
     -0.0531132	      0.0019501	      0.0000000
     -0.0815954	      0.0047624	      0.0000000
     -0.1124475	      0.0076844	      0.0000000
     -0.1456829	      0.0106805	      0.0000000
     -0.1812822	      0.0137119	      0.0000000
     -0.2191901	      0.0167385	      0.0000000
     -0.2593149	      0.0197191	      0.0000000
     -0.3015281	      0.0226130	      0.0000000
     -0.3456643	      0.0253751	      0.0000000
     -0.3915249	      0.0279584	      0.0000000
     -0.4388812	      0.0303215	      0.0000000
     -0.4874739	      0.0324251	      0.0000000
     -0.5370155	      0.0342311	      0.0000000
     -0.5871939	      0.0357026	      0.0000000
     -0.6376751	      0.0368045	      0.0000000
     -0.6881066	      0.0375043	      0.0000000
     -0.7381209	      0.0377722	      0.0000000
     -0.7873385	      0.0375816	      0.0000000
     -0.8353723	      0.0369095	      0.0000000
     -0.8818299	      0.0357369	      0.0000000
     -0.9263181	      0.0340483	      0.0000000
     -0.9684450	      0.0318328	      0.0000000
     -1.0078240	      0.0290834	      0.0000000
     -1.0440759	      0.0257975	      0.0000000
     -1.0768326	      0.0219765	      0.0000000
     -1.1057376	      0.0176270	      0.0000000
     -1.1304520	      0.0127595	      0.0000000
     -1.1506452	      0.0073931	      0.0000000
     -1.1660108	      0.0015506	      0.0000000
     -1.1762173	     -0.0047818	      0.0000000
     -1.1809963	     -0.0116358	      0.0000000
     -1.1801135	     -0.0189698	      0.0000000
     -1.1733794	     -0.0266952	      0.0000000
     -1.1606609	     -0.0347322	      0.0000000
     -1.1418706	     -0.0429993	      0.0000000
     -1.1169734	     -0.0514134	      0.0000000
     -1.0859865	     -0.0598858	      0.0000000
     -1.0489825	     -0.0683215	      0.0000000
     -1.0060924	     -0.0766182	      0.0000000
     -0.9575089	     -0.0846663	      0.0000000
     -0.9034901	     -0.0923490	      0.0000000
     -0.8443620	     -0.0995436	      0.0000000
     -0.7805223	     -0.1061226	      0.0000000
     -0.7124423	     -0.1119559	      0.0000000
     -0.6406687	     -0.1169130	      0.0000000
     -0.5658240	     -0.1208662	      0.0000000
     -0.4886057	     -0.1236943	      0.0000000
     -0.4097834	     -0.1252869	      0.0000000
     -0.3301940	     -0.1255492	      0.0000000
     -0.2507348	     -0.1244074	      0.0000000
     -0.1723518	     -0.1218153	      0.0000000
     -0.0960302	     -0.1177612	      0.0000000
     -0.0227650	     -0.1122767	      0.0000000
      0.0464266	     -0.1054500	      0.0000000
      0.1105925	     -0.0974160	      0.0000000
      0.1688633	     -0.0883298	      0.0000000
      0.2204667	     -0.0784004	      0.0000000
      0.2647581	     -0.0678733	      0.0000000
      0.3012446	     -0.0570225	      0.0000000
      0.3296188	     -0.0461438	      0.0000000
      0.3497732	     -0.0355340	      0.0000000
      0.3618072	     -0.0254827	      0.0000000
      0.3660382	     -0.0162576	      0.0000000
      0.3629769	     -0.0080886	      0.0000000
      0.3533433	     -0.0011426	      0.0000000
      0.3379628	      0.0045566	      0.0000000
      0.3177933	      0.0090563	      0.0000000
      0.2937624	      0.0123878	      0.0000000
      0.2668070	      0.0146230	      0.0000000
      0.2378112	      0.0158549	      0.0000000
      0.2076161	      0.0161809	      0.0000000
      0.1769892	      0.0156844	      0.0000000
      0.1466745	      0.0144013	      0.0000000
      0.1173443	      0.0123237	      0.0000000
      0.0897531	      0.0093539	      0.0000000
      0.0645244	      0.0054797	      0.0000000
      0.0425361	      0.0006876	      0.0000000
      0.0241116	     -0.0039675	      0.0000000
      0.0101445	     -0.0069934	      0.0000000
      0.0000000	      0.0000000	      0.0000000
      0.0000000	      0.0000000	      0.0000000
     -0.0108544	     -0.0336398	      0.0000000
     -0.0058160	     -0.0579398	      0.0000000
      0.0106819	     -0.0735144	      0.0000000
      0.0304383	     -0.0815528	      0.0000000
      0.0532827	     -0.0833639	      0.0000000
      0.0750781	     -0.0803471	      0.0000000
      0.0945721	     -0.0738415	      0.0000000
      0.1099224	     -0.0651255	      0.0000000
      0.1204547	     -0.0553056	      0.0000000
      0.1256614	     -0.0452835	      0.0000000
      0.1255650	     -0.0357074	      0.0000000
      0.1203661	     -0.0269745	      0.0000000
      0.1104490	     -0.0192440	      0.0000000
      0.0962268	     -0.0124864	      0.0000000
      0.0780822	     -0.0065397	      0.0000000
      0.0563351	     -0.0011739	      0.0000000
      0.0311940	      0.0038588	      0.0000000
      0.0028125	      0.0087809	      0.0000000
     -0.0287684	      0.0137642	      0.0000000
     -0.0635343	      0.0189220	      0.0000000
     -0.1015150	      0.0243085	      0.0000000
     -0.1427362	      0.0299196	      0.0000000
     -0.1872060	      0.0357129	      0.0000000
     -0.2349019	      0.0416270	      0.0000000
     -0.2857578	      0.0475872	      0.0000000
     -0.3396600	      0.0535112	      0.0000000
     -0.3964448	      0.0593135	      0.0000000
     -0.4558994	      0.0649077	      0.0000000
     -0.5177627	      0.0702077	      0.0000000
     -0.5817286	      0.0751275	      0.0000000
     -0.6474514	      0.0795824	      0.0000000
     -0.7145497	      0.0834932	      0.0000000
     -0.7826083	      0.0867860	      0.0000000
     -0.8511845	      0.0893922	      0.0000000
     -0.9198123	      0.0912484	      0.0000000
     -0.9880086	      0.0922978	      0.0000000
     -1.0552781	      0.0924901	      0.0000000
     -1.1211191	      0.0917826	      0.0000000
     -1.1850280	      0.0901403	      0.0000000
     -1.2465045	      0.0875359	      0.0000000
     -1.3050562	      0.0839505	      0.0000000
     -1.3602021	      0.0793730	      0.0000000
     -1.4114769	      0.0738002	      0.0000000
     -1.4584336	      0.0672365	      0.0000000
     -1.5006467	      0.0596938	      0.0000000
     -1.5377144	      0.0511910	      0.0000000
     -1.5692594	      0.0417537	      0.0000000
     -1.5949325	      0.0314125	      0.0000000
     -1.6144046	      0.0202028	      0.0000000
     -1.6273831	      0.0081589	      0.0000000
     -1.6335793	     -0.0047143	      0.0000000
     -1.6327225	     -0.0183799	      0.0000000
     -1.6247308	     -0.0327141	      0.0000000
     -1.6095017	     -0.0475794	      0.0000000
     -1.5870007	     -0.0628416	      0.0000000
     -1.5572297	     -0.0783643	      0.0000000
     -1.5202403	     -0.0940062	      0.0000000
     -1.4761325	     -0.1096181	      0.0000000
     -1.4250589	     -0.1250414	      0.0000000
     -1.3672264	     -0.1401073	      0.0000000
     -1.3028996	     -0.1546365	      0.0000000
     -1.2324035	     -0.1684394	      0.0000000
     -1.1561272	     -0.1813174	      0.0000000
     -1.0745267	     -0.1930648	      0.0000000
     -0.9881278	     -0.2034712	      0.0000000
     -0.8975286	     -0.2123247	      0.0000000
     -0.8034014	     -0.2194168	      0.0000000
     -0.7064931	     -0.2245470	      0.0000000
     -0.6076242	     -0.2275291	      0.0000000
     -0.5076873	     -0.2281986	      0.0000000
     -0.4076415	     -0.2264204	      0.0000000
     -0.3085065	     -0.2220982	      0.0000000
     -0.2113518	     -0.2151848	      0.0000000
     -0.1172880	     -0.2056922	      0.0000000
     -0.0274355	     -0.1937169	      0.0000000
      0.0570439	     -0.1794410	      0.0000000
      0.1350769	     -0.1631437	      0.0000000
      0.2056776	     -0.1451502	      0.0000000
      0.2679734	     -0.1258402	      0.0000000
      0.3212301	     -0.1056772	      0.0000000
      0.3648912	     -0.0851656	      0.0000000
      0.3986085	     -0.0648296	      0.0000000
      0.4222559	     -0.0452005	      0.0000000
      0.4359546	     -0.0267889	      0.0000000
      0.4400669	     -0.0100560	      0.0000000
      0.4352012	      0.0046039	      0.0000000
      0.4222047	      0.0169861	      0.0000000
      0.4022022	      0.0270694	      0.0000000
      0.3762879	      0.0348720	      0.0000000
      0.3456286	      0.0404827	      0.0000000
      0.3113651	      0.0440384	      0.0000000
      0.2746191	      0.0456943	      0.0000000
      0.2364463	      0.0455929	      0.0000000
      0.1978841	      0.0438168	      0.0000000
      0.1598724	      0.0403850	      0.0000000
      0.1234501	      0.0352048	      0.0000000
      0.0894362	      0.0282688	      0.0000000
      0.0591171	      0.0195896	      0.0000000
      0.0329502	      0.0102319	      0.0000000
      0.0133136	      0.0016238	      0.0000000
      0.0000000	      0.0000000	      0.0000000
      0.0000000	      0.0000000	      0.0000000
     -0.0092974	     -0.0457285	      0.0000000
     -0.0026610	     -0.0796508	      0.0000000
      0.0152021	     -0.1017865	      0.0000000
      0.0358495	     -0.1132601	      0.0000000
      0.0590659	     -0.1156197	      0.0000000
      0.0806230	     -0.1107527	      0.0000000
      0.0991928	     -0.1005915	      0.0000000
      0.1128564	     -0.0869968	      0.0000000
      0.1208770	     -0.0716045	      0.0000000
      0.1226867	     -0.0557497	      0.0000000
      0.1182531	     -0.0404044	      0.0000000
      0.1077230	     -0.0261717	      0.0000000
      0.0914276	     -0.0133127	      0.0000000
      0.0697246	     -0.0018072	      0.0000000
      0.0429442	      0.0085626	      0.0000000
      0.0114428	      0.0180826	      0.0000000
     -0.0245460	      0.0270761	      0.0000000
     -0.0648415	      0.0358431	      0.0000000
     -0.1093387	      0.0446209	      0.0000000
     -0.1579728	      0.0535565	      0.0000000
     -0.2106919	      0.0627157	      0.0000000
     -0.2674299	      0.0720850	      0.0000000
     -0.3280912	      0.0815922	      0.0000000
     -0.3925347	      0.0911306	      0.0000000
     -0.4605654	      0.1005731	      0.0000000
     -0.5319308	      0.1097821	      0.0000000
     -0.6063213	      0.1186170	      0.0000000
     -0.6833726	      0.1269376	      0.0000000
     -0.7626698	      0.1346075	      0.0000000
     -0.8437529	      0.1414951	      0.0000000
     -0.9261238	      0.1474760	      0.0000000
     -1.0092530	      0.1524357	      0.0000000
     -1.0925856	      0.1562706	      0.0000000
     -1.1755484	      0.1588882	      0.0000000
     -1.2575573	      0.1602082	      0.0000000
     -1.3380245	      0.1601625	      0.0000000
     -1.4163652	      0.1586965	      0.0000000
     -1.4920041	      0.1557684	      0.0000000
     -1.5643811	      0.1513502	      0.0000000
     -1.6329560	      0.1454264	      0.0000000
     -1.6972134	      0.1379944	      0.0000000
     -1.7566656	      0.1290636	      0.0000000
     -1.8108561	      0.1186544	      0.0000000
     -1.8593615	      0.1067981	      0.0000000
     -1.9017930	      0.0935352	      0.0000000
     -1.9377973	      0.0789149	      0.0000000
     -1.9670565	      0.0629940	      0.0000000
     -1.9892897	      0.0458345	      0.0000000
     -2.0042448	      0.0275034	      0.0000000
     -2.0117299	      0.0080679	      0.0000000
     -2.0115240	     -0.0124350	      0.0000000
     -2.0035448	     -0.0338623	      0.0000000
     -1.9878074	     -0.0560039	      0.0000000
     -1.9643187	     -0.0786960	      0.0000000
     -1.9331301	     -0.1017629	      0.0000000
     -1.8943196	     -0.1250267	      0.0000000
     -1.8480017	     -0.1482999	      0.0000000
     -1.7943276	     -0.1713850	      0.0000000
     -1.7334887	     -0.1940718	      0.0000000
     -1.6657194	     -0.2161373	      0.0000000
     -1.5913007	     -0.2373445	      0.0000000
     -1.5105634	     -0.2574431	      0.0000000
     -1.4238922	     -0.2761705	      0.0000000
     -1.3317298	     -0.2932535	      0.0000000
     -1.2345805	     -0.3084116	      0.0000000
     -1.1330140	     -0.3213605	      0.0000000
     -1.0276687	     -0.3318177	      0.0000000
     -0.9192538	     -0.3395084	      0.0000000
     -0.8085511	     -0.3441734	      0.0000000
     -0.6964140	     -0.3455777	      0.0000000
     -0.5837666	     -0.3435208	      0.0000000
     -0.4715987	     -0.3378483	      0.0000000
     -0.3609604	     -0.3284641	      0.0000000
     -0.2529515	     -0.3153461	      0.0000000
     -0.1487145	     -0.2985590	      0.0000000
     -0.0494095	     -0.2782942	      0.0000000
      0.0437629	     -0.2548592	      0.0000000
      0.1296533	     -0.2287022	      0.0000000
      0.2072310	     -0.2003425	      0.0000000
      0.2755625	     -0.1703650	      0.0000000
      0.3338791	     -0.1394708	      0.0000000
      0.3815885	     -0.1083956	      0.0000000
      0.4183040	     -0.0779060	      0.0000000
      0.4438898	     -0.0487655	      0.0000000
      0.4584470	     -0.0216911	      0.0000000
      0.4623840	      0.0026472	      0.0000000
      0.4562949	      0.0237304	      0.0000000
      0.4413127	      0.0413673	      0.0000000
      0.4185460	      0.0555208	      0.0000000
      0.3892441	      0.0662382	      0.0000000
      0.3546803	      0.0736585	      0.0000000
      0.3161501	      0.0779642	      0.0000000
      0.2749109	      0.0793405	      0.0000000
      0.2322254	      0.0779144	      0.0000000
      0.1892527	      0.0737350	      0.0000000
      0.1472845	      0.0667210	      0.0000000
      0.1073393	      0.0568246	      0.0000000
      0.0711173	      0.0439850	      0.0000000
      0.0393169	      0.0289554	      0.0000000
      0.0155451	      0.0127828	      0.0000000
      0.0000000	      0.0000000	      0.0000000
      0.0000000	      0.0000000	      0.0000000
     -0.0083534	     -0.0584589	      0.0000000
     -0.0009454	     -0.1018121	      0.0000000
      0.0171253	     -0.1300102	      0.0000000
      0.0370845	     -0.1442423	      0.0000000
      0.0587103	     -0.1464149	      0.0000000
      0.0777914	     -0.1389277	      0.0000000
      0.0930565	     -0.1243204	      0.0000000
      0.1026341	     -0.1050384	      0.0000000
      0.1058232	     -0.0832430	      0.0000000
      0.1020636	     -0.0606932	      0.0000000
      0.0913070	     -0.0386721	      0.0000000
      0.0736517	     -0.0179838	      0.0000000
      0.0493552	      0.0010278	      0.0000000
      0.0186830	      0.0183821	      0.0000000
     -0.0179610	      0.0342416	      0.0000000
     -0.0602639	      0.0489448	      0.0000000
     -0.1079472	      0.0629028	      0.0000000
     -0.1608148	      0.0764799	      0.0000000
     -0.2187045	      0.0899581	      0.0000000
     -0.2814694	      0.1035038	      0.0000000
     -0.3489491	      0.1171702	      0.0000000
     -0.4209483	      0.1309116	      0.0000000
     -0.4972260	      0.1446112	      0.0000000
     -0.5774858	      0.1581072	      0.0000000
     -0.6613715	      0.1712125	      0.0000000
     -0.7484674	      0.1837297	      0.0000000
     -0.8383016	      0.1954602	      0.0000000
     -0.9303513	      0.2062106	      0.0000000
     -1.0240499	      0.2157973	      0.0000000
     -1.1187952	      0.2240488	      0.0000000
     -1.2139587	      0.2308089	      0.0000000
     -1.3088944	      0.2359384	      0.0000000
     -1.4029473	      0.2393172	      0.0000000
     -1.4954620	      0.2408443	      0.0000000
     -1.5857915	      0.2404385	      0.0000000
     -1.6733048	      0.2380391	      0.0000000
     -1.7573936	      0.2336048	      0.0000000
     -1.8374789	      0.2271141	      0.0000000
     -1.9130153	      0.2185639	      0.0000000
     -1.9834953	      0.2079687	      0.0000000
     -2.0484522	      0.1953590	      0.0000000
     -2.1074620	      0.1807802	      0.0000000
     -2.1601443	      0.1642910	      0.0000000
     -2.2061625	      0.1459617	      0.0000000
     -2.2452238	      0.1258725	      0.0000000
     -2.2770775	      0.1041125	      0.0000000
     -2.3015143	      0.0807774	      0.0000000
     -2.3183643	      0.0559678	      0.0000000
     -2.3274919	      0.0297903	      0.0000000
     -2.3288317	      0.0023402	      0.0000000
     -2.3222374	     -0.0262698	      0.0000000
     -2.3078463	     -0.0557964	      0.0000000
     -2.2856939	     -0.0860049	      0.0000000
     -2.2558612	     -0.1167086	      0.0000000
     -2.2184389	     -0.1477067	      0.0000000
     -2.1735378	     -0.1787918	      0.0000000
     -2.1212901	     -0.2097441	      0.0000000
     -2.0618523	     -0.2403302	      0.0000000
     -1.9954090	     -0.2703008	      0.0000000
     -1.9221763	     -0.2993899	      0.0000000
     -1.8424064	     -0.3273136	      0.0000000
     -1.7563915	     -0.3537704	      0.0000000
     -1.6644694	     -0.3784422	      0.0000000
     -1.5670277	     -0.4009959	      0.0000000
     -1.4645095	     -0.4210869	      0.0000000
     -1.3574180	     -0.4383630	      0.0000000
     -1.2463210	     -0.4524710	      0.0000000
     -1.1318548	     -0.4630633	      0.0000000
     -1.0147270	     -0.4698069	      0.0000000
     -0.8957181	     -0.4723942	      0.0000000
     -0.7756816	     -0.4705548	      0.0000000
     -0.6555416	     -0.4640690	      0.0000000
     -0.5362890	     -0.4527835	      0.0000000
     -0.4189745	     -0.4366273	      0.0000000
     -0.3047002	     -0.4156323	      0.0000000
     -0.1946069	     -0.3899499	      0.0000000
     -0.0898781	     -0.3598892	      0.0000000
      0.0083104	     -0.3259205	      0.0000000
      0.0987023	     -0.2886424	      0.0000000
      0.1802853	     -0.2488372	      0.0000000
      0.2520746	     -0.2073347	      0.0000000
      0.3132857	     -0.1650474	      0.0000000
      0.3632973	     -0.1229711	      0.0000000
      0.4017219	     -0.0821130	      0.0000000
      0.4283940	     -0.0434587	      0.0000000
      0.4434709	     -0.0079414	      0.0000000
      0.4472618	      0.0235358	      0.0000000
      0.4406473	      0.0504742	      0.0000000
      0.4246915	      0.0727259	      0.0000000
      0.4005952	      0.0902424	      0.0000000
      0.3696593	      0.1031147	      0.0000000
      0.3332520	      0.1115114	      0.0000000
      0.2927461	      0.1156276	      0.0000000
      0.2495590	      0.1156135	      0.0000000
      0.2050209	      0.1115305	      0.0000000
      0.1606427	      0.1032911	      0.0000000
      0.1176470	      0.0907537	      0.0000000
      0.0781064	      0.0736974	      0.0000000
      0.0429883	      0.0523467	      0.0000000
      0.0167776	      0.0270922	      0.0000000
      0.0000000	      0.0000000	      0.0000000
      0.0000000	      0.0000000	      0.0000000
     -0.0079967	     -0.0720340	      0.0000000
     -0.0006909	     -0.1242922	      0.0000000
      0.0163737	     -0.1576052	      0.0000000
      0.0341527	     -0.1735044	      0.0000000
      0.0524386	     -0.1744415	      0.0000000
      0.0671136	     -0.1633864	      0.0000000
      0.0770449	     -0.1434995	      0.0000000