# vtk DataFile Version 2.0
vw
ASCII
DATASET STRUCTURED_POINTS
DIMENSIONS  102  102    1
ORIGIN      0.0000000      0.0000000      0.0000000
SPACING      0.0100000      0.0100000      0.0100000
POINT_DATA  10404
VECTORS velocity float
      0.0000000	      0.0000000	      0.0000000
      0.0000000	      0.0000000	      0.0000000
      0.0000000	      0.0000000	      0.0000000
      0.0000000	      0.0000000	      0.0000000
      0.0000000	      0.0000000	      0.0000000
      0.0000000	      0.0000000	      0.0000000
      0.0000000	      0.0000000	      0.0000000
      0.0000000	      0.0000000	      0.0000000
      0.0000000	      0.0000000	      0.0000000
      0.0000000	      0.0000000	      0.0000000
      0.0000000	      0.0000000	      0.0000000
      0.0000000	      0.0000000	      0.0000000
      0.0000000	      0.0000000	      0.0000000
      0.0000000	      0.0000000	      0.0000000
      0.0000000	      0.0000000	      0.0000000
      0.0000000	      0.0000000	      0.0000000
      0.0000000	      0.0000000	      0.0000000
      0.0000000	      0.0000000	      0.0000000
      0.0000000	      0.0000000	      0.0000000
      0.0000000	      0.0000000	      0.0000000
      0.0000000	      0.0000000	      0.0000000
      0.0000000	      0.0000000	      0.0000000
      0.0000000	      0.0000000	      0.0000000
      0.0000000	      0.0000000	      0.0000000
      0.0000000	      0.0000000	      0.0000000
      0.0000000	      0.0000000	      0.0000000
      0.0000000	      0.0000000	      0.0000000
      0.0000000	      0.0000000	      0.0000000
      0.0000000	      0.0000000	      0.0000000
      0.0000000	      0.0000000	      0.0000000
      0.0000000	      0.0000000	      0.0000000
      0.0000000	      0.0000000	      0.0000000
      0.0000000	      0.0000000	      0.0000000
      0.0000000	      0.0000000	      0.0000000
      0.0000000	      0.0000000	      0.0000000
      0.0000000	      0.0000000	      0.0000000
      0.0000000	      0.0000000	      0.0000000
      0.0000000	      0.0000000	      0.0000000
      0.0000000	      0.0000000	      0.0000000
      0.0000000	      0.0000000	      0.0000000
      0.0000000	      0.0000000	      0.0000000
      0.0000000	      0.0000000	      0.0000000
      0.0000000	      0.0000000	      0.0000000
      0.0000000	      0.0000000	      0.0000000
      0.0000000	      0.0000000	      0.0000000
      0.0000000	      0.0000000	      0.0000000
      0.0000000	      0.0000000	      0.0000000
      0.0000000	      0.0000000	      0.0000000
      0.0000000	      0.0000000	      0.0000000
      0.0000000	      0.0000000	      0.0000000
      0.0000000	      0.0000000	      0.0000000
      0.0000000	      0.0000000	      0.0000000
      0.0000000	      0.0000000	      0.0000000
      0.0000000	      0.0000000	      0.0000000
      0.0000000	      0.0000000	      0.0000000
      0.0000000	      0.0000000	      0.0000000
      0.0000000	      0.0000000	      0.0000000
      0.0000000	      0.0000000	      0.0000000
      0.0000000	      0.0000000	      0.0000000
      0.0000000	      0.0000000	      0.0000000
      0.0000000	      0.0000000	      0.0000000
      0.0000000	      0.0000000	      0.0000000
      0.0000000	      0.0000000	      0.0000000
      0.0000000	      0.0000000	      0.0000000
      0.0000000	      0.0000000	      0.0000000
      0.0000000	      0.0000000	      0.0000000
      0.0000000	      0.0000000	      0.0000000
      0.0000000	      0.0000000	      0.0000000
      0.0000000	      0.0000000	      0.0000000
      0.0000000	      0.0000000	      0.0000000
      0.0000000	      0.0000000	      0.0000000
      0.0000000	      0.0000000	      0.0000000
      0.0000000	      0.0000000	      0.0000000
      0.0000000	      0.0000000	      0.0000000
      0.0000000	      0.0000000	      0.0000000
      0.0000000	      0.0000000	      0.0000000
      0.0000000	      0.0000000	      0.0000000
      0.0000000	      0.0000000	      0.0000000
      0.0000000	      0.0000000	      0.0000000
      0.0000000	      0.0000000	      0.0000000
      0.0000000	      0.0000000	      0.0000000
      0.0000000	      0.0000000	      0.0000000
      0.0000000	      0.0000000	      0.0000000
      0.0000000	      0.0000000	      0.0000000
      0.0000000	      0.0000000	      0.0000000
      0.0000000	      0.0000000	      0.0000000
      0.0000000	      0.0000000	      0.0000000
      0.0000000	      0.0000000	      0.0000000
      0.0000000	      0.0000000	      0.0000000
      0.0000000	      0.0000000	      0.0000000
      0.0000000	      0.0000000	      0.0000000
      0.0000000	      0.0000000	      0.0000000
      0.0000000	      0.0000000	      0.0000000
      0.0000000	      0.0000000	      0.0000000
      0.0000000	      0.0000000	      0.0000000
      0.0000000	      0.0000000	      0.0000000
      0.0000000	      0.0000000	      0.0000000
      0.0000000	      0.0000000	      0.0000000
      0.0000000	      0.0000000	      0.0000000
      0.0000000	      0.0000000	      0.0000000
      0.0000000	      0.0000000	      0.0000000
      0.0000000	      0.0000000	      0.0000000
      0.0000000	      0.0000000	      0.0000000
     -0.0122933	     -0.0152263	      0.0000000
     -0.0112911	     -0.0215646	      0.0000000
     -0.0013390	     -0.0248186	      0.0000000
      0.0098128	     -0.0261852	      0.0000000
      0.0230650	     -0.0263033	      0.0000000
      0.0355964	     -0.0255780	      0.0000000
      0.0470524	     -0.0242574	      0.0000000
      0.0563907	     -0.0226055	      0.0000000
      0.0634116	     -0.0208194	      0.0000000
      0.0679166	     -0.0190703	      0.0000000
      0.0700419	     -0.0174692	      0.0000000
      0.0699881	     -0.0160806	      0.0000000
      0.0680542	     -0.0149202	      0.0000000
      0.0645291	     -0.0139678	      0.0000000
      0.0596723	     -0.0131787	      0.0000000
      0.0536783	     -0.0124978	      0.0000000
      0.0466749	     -0.0118681	      0.0000000
      0.0387185	     -0.0112413	      0.0000000
      0.0298086	     -0.0105828	      0.0000000
      0.0199035	     -0.0098718	      0.0000000
      0.0089388	     -0.0090983	      0.0000000
     -0.0031597	     -0.0082562	      0.0000000
     -0.0164655	     -0.0073471	      0.0000000
     -0.0310349	     -0.0063815	      0.0000000
     -0.0469091	     -0.0053717	      0.0000000
     -0.0641103	     -0.0043302	      0.0000000
     -0.0826424	     -0.0032692	      0.0000000
     -0.1024899	     -0.0022011	      0.0000000
     -0.1236178	     -0.0011373	      0.0000000
     -0.1459729	     -0.0000901	      0.0000000
     -0.1694804	      0.0009226	      0.0000000
     -0.1940420	      0.0018823	      0.0000000
     -0.2195439	      0.0027757	      0.0000000
     -0.2458539	      0.0035894	      0.0000000
     -0.2728240	      0.0043097	      0.0000000
     -0.3002899	      0.0049225	      0.0000000
     -0.3280730	      0.0054143	      0.0000000
     -0.3559815	      0.0057718	      0.0000000
     -0.3838114	      0.0059826	      0.0000000
     -0.4113490	      0.0060351	      0.0000000
     -0.4383718	      0.0059188	      0.0000000
     -0.4646509	      0.0056245	      0.0000000
     -0.4899521	      0.0051440	      0.0000000
     -0.5140385	      0.0044709	      0.0000000
     -0.5366716	      0.0036002	      0.0000000
     -0.5576145	      0.0025283	      0.0000000
     -0.5766299	      0.0012545	      0.0000000
     -0.5934930	     -0.0002198	      0.0000000
     -0.6079702	     -0.0018805	      0.0000000
     -0.6198616	     -0.0037127	      0.0000000
     -0.6289583	     -0.0057486	      0.0000000
     -0.6350317	     -0.0080249	      0.0000000
     -0.6378472	     -0.0105210	      0.0000000
     -0.6372139	     -0.0132024	      0.0000000
     -0.6329784	     -0.0160374	      0.0000000
     -0.6250225	     -0.0189944	      0.0000000
     -0.6132646	     -0.0220409	      0.0000000
     -0.5976602	     -0.0251420	      0.0000000
     -0.5782051	     -0.0282597	      0.0000000
     -0.5549385	     -0.0313523	      0.0000000
     -0.5279463	     -0.0343743	      0.0000000
     -0.4973647	     -0.0372769	      0.0000000
     -0.4633835	     -0.0400086	      0.0000000
     -0.4262489	     -0.0425152	      0.0000000
     -0.3862659	     -0.0447417	      0.0000000
     -0.3437995	     -0.0466329	      0.0000000
     -0.2992747	     -0.0481351	      0.0000000
     -0.2531751	     -0.0491982	      0.0000000
     -0.2060397	     -0.0497771	      0.0000000
     -0.1584575	     -0.0498350	      0.0000000
     -0.1110594	     -0.0493449	      0.0000000
     -0.0645079	     -0.0482939	      0.0000000
     -0.0194816	     -0.0466841	      0.0000000
      0.0233400	     -0.0445454	      0.0000000
      0.0633016	     -0.0419264	      0.0000000
      0.0998062	     -0.0388696	      0.0000000
      0.1323134	     -0.0354494	      0.0000000
      0.1603696	     -0.0317572	      0.0000000
      0.1836293	     -0.0278944	      0.0000000
      0.2018684	     -0.0239737	      0.0000000
      0.2149991	     -0.0201102	      0.0000000
      0.2230762	     -0.0164155	      0.0000000
      0.2262935	     -0.0129934	      0.0000000
      0.2249827	     -0.0099365	      0.0000000
      0.2195919	     -0.0073161	      0.0000000
      0.2106773	     -0.0051841	      0.0000000
      0.1988414	     -0.0035160	      0.0000000
      0.1846644	     -0.0022557	      0.0000000
      0.1687045	     -0.0013827	      0.0000000
      0.1515057	     -0.0008631	      0.0000000
      0.1335635	     -0.0006569	      0.0000000
      0.1153339	     -0.0007243	      0.0000000
      0.0972173	     -0.0010335	      0.0000000
      0.0796011	     -0.0015781	      0.0000000
      0.0628387	     -0.0023727	      0.0000000
      0.0473588	     -0.0034846	      0.0000000
      0.0335712	     -0.0049329	      0.0000000
      0.0219852	     -0.0067513	      0.0000000
      0.0129688	     -0.0082747	      0.0000000
      0.0059501	     -0.0083944	      0.0000000
      0.0000000	      0.0000000	      0.0000000
      0.0000000	      0.0000000	      0.0000000
     -0.0124608	     -0.0248855	      0.0000000
     -0.0095624	     -0.0393996	      0.0000000
      0.0042464	     -0.0480738	      0.0000000
      0.0209191	     -0.0523111	      0.0000000
      0.0406288	     -0.0531675	      0.0000000
      0.0596098	     -0.0515192	      0.0000000
      0.0769300	     -0.0480819	      0.0000000
      0.0910097	     -0.0435559	      0.0000000
      0.1013557	     -0.0385197	      0.0000000
      0.1075809	     -0.0334523	      0.0000000
      0.1097708	     -0.0286880	      0.0000000
      0.1081499	     -0.0244277	      0.0000000
      0.1031002	     -0.0207433	      0.0000000
      0.0950163	     -0.0176055	      0.0000000
      0.0842651	     -0.0149125	      0.0000000
      0.0711355	     -0.0125360	      0.0000000
      0.0558244	     -0.0103344	      0.0000000
      0.0384345	     -0.0081779	      0.0000000
      0.0189872	     -0.0059667	      0.0000000
     -0.0025532	     -0.0036342	      0.0000000
     -0.0262606	     -0.0011489	      0.0000000
     -0.0522178	      0.0014993	      0.0000000
     -0.0804886	      0.0042906	      0.0000000
     -0.1111150	      0.0071924	      0.0000000
     -0.1441126	      0.0101692	      0.0000000
     -0.1794630	      0.0131826	      0.0000000
     -0.2171131	      0.0161927	      0.0000000
     -0.2569732	      0.0191587	      0.0000000
     -0.2989171	      0.0220395	      0.0000000
     -0.3427822	      0.0247918	      0.0000000
     -0.3883716	      0.0273688	      0.0000000
     -0.4354581	      0.0297273	      0.0000000
     -0.4837847	      0.0318282	      0.0000000
     -0.5330654	      0.0336332	      0.0000000
     -0.5829898	      0.0351054	      0.0000000
     -0.6332250	      0.0362097	      0.0000000
     -0.6834195	      0.0369133	      0.0000000
     -0.7332064	      0.0371861	      0.0000000
     -0.7822069	      0.0370015	      0.0000000
     -0.8300338	      0.0363362	      0.0000000
     -0.8762951	      0.0351709	      0.0000000
     -0.9205971	      0.0334901	      0.0000000
     -0.9625479	      0.0312826	      0.0000000
     -1.0017603	      0.0285414	      0.0000000
     -1.0378548	      0.0252636	      0.0000000
     -1.0704630	      0.0214508	      0.0000000
     -1.0992278	      0.0171099	      0.0000000
     -1.1238107	      0.0122513	      0.0000000
     -1.1438798	      0.0068959	      0.0000000
     -1.1591299	      0.0010661	      0.0000000
     -1.1692247	     -0.0052565	      0.0000000
     -1.1739059	     -0.0121005	      0.0000000
     -1.1729343	     -0.0194199	      0.0000000
     -1.1661243	     -0.0271272	      0.0000000
     -1.1533424	     -0.0351428	      0.0000000
     -1.1345030	     -0.0433855	      0.0000000
     -1.1095721	     -0.0517719	      0.0000000
     -1.0785685	     -0.0602134	      0.0000000
     -1.0415663	     -0.0686149	      0.0000000
     -0.9986984	     -0.0768739	      0.0000000
     -0.9501592	     -0.0848808	      0.0000000
     -0.8962083	     -0.0925191	      0.0000000
     -0.8371736	     -0.0996663	      0.0000000
     -0.7734543	     -0.1061953	      0.0000000
     -0.7055231	     -0.1119765	      0.0000000
     -0.6339278	     -0.1168799	      0.0000000
     -0.5592917	     -0.1207787	      0.0000000
     -0.4823127	     -0.1235525	      0.0000000
     -0.4037604	     -0.1250921	      0.0000000
     -0.3244712	     -0.1253036	      0.0000000
     -0.2453412	     -0.1241147	      0.0000000
     -0.1673148	     -0.1214804	      0.0000000
     -0.0913748	     -0.1173905	      0.0000000
     -0.0185119	     -0.1118786	      0.0000000
      0.0502575	     -0.1050347	      0.0000000
      0.1139922	     -0.0969934	      0.0000000
      0.1718266	     -0.0879091	      0.0000000
      0.2229956	     -0.0779930	      0.0000000
      0.2668612	     -0.0674907	      0.0000000
      0.3029388	     -0.0566752	      0.0000000
      0.3309278	     -0.0458412	      0.0000000
      0.3507275	     -0.0352838	      0.0000000
      0.3624435	     -0.0252905	      0.0000000
      0.3663979	     -0.0161266	      0.0000000
      0.3631052	     -0.0080199	      0.0000000
      0.3532871	     -0.0011332	      0.0000000
      0.3377684	      0.0045125	      0.0000000
      0.3175035	      0.0089646	      0.0000000
      0.2934160	      0.0122552	      0.0000000
      0.2664380	      0.0144569	      0.0000000
      0.2374482	      0.0156623	      0.0000000
      0.2072821	      0.0159688	      0.0000000
      0.1767015	      0.0154592	      0.0000000
      0.1464448	      0.0141686	      0.0000000
      0.1171793	      0.0120889	      0.0000000
      0.0896535	      0.0091230	      0.0000000
      0.0644857	      0.0052600	      0.0000000
      0.0425454	      0.0004894	      0.0000000
      0.0241503	     -0.0041283	      0.0000000
      0.0101799	     -0.0070948	      0.0000000
      0.0000000	      0.0000000	      0.0000000
      0.0000000	      0.0000000	      0.0000000
     -0.0110676	     -0.0336484	      0.0000000
     -0.0062213	     -0.0579148	      0.0000000
      0.0100809	     -0.0734767	      0.0000000
      0.0296448	     -0.0815354	      0.0000000
      0.0523315	     -0.0834054	      0.0000000
      0.0740129	     -0.0804769	      0.0000000
      0.0934498	     -0.0740756	      0.0000000
      0.1088009	     -0.0654655	      0.0000000
      0.1193902	     -0.0557408	      0.0000000
      0.1247026	     -0.0457954	      0.0000000
      0.1247514	     -0.0362740	      0.0000000
      0.1197264	     -0.0275747	      0.0000000
      0.1100039	     -0.0198620	      0.0000000
      0.0959904	     -0.0131113	      0.0000000
      0.0780659	     -0.0071679	      0.0000000
      0.0565472	     -0.0018078	      0.0000000
      0.0316468	      0.0032136	      0.0000000
      0.0035133	      0.0081178	      0.0000000
     -0.0278050	      0.0130757	      0.0000000
     -0.0622935	      0.0182014	      0.0000000
     -0.0999794	      0.0235506	      0.0000000
     -0.1408890	      0.0291232	      0.0000000
     -0.1850311	      0.0348791	      0.0000000
     -0.2323845	      0.0407575	      0.0000000
     -0.2828859	      0.0466849	      0.0000000
     -0.3364244	      0.0525797	      0.0000000
     -0.3928398	      0.0583570	      0.0000000
     -0.4519223	      0.0639308	      0.0000000
     -0.5134147	      0.0692153	      0.0000000
     -0.5770139	      0.0741250	      0.0000000
     -0.6423768	      0.0785753	      0.0000000
     -0.7091243	      0.0824861	      0.0000000
     -0.7768440	      0.0857830	      0.0000000
     -0.8450951	      0.0883970	      0.0000000
     -0.9134133	      0.0902643	      0.0000000
     -0.9813168	      0.0913277	      0.0000000
     -1.0483110	      0.0915364	      0.0000000
     -1.1138947	      0.0908472	      0.0000000
     -1.1775644	      0.0892245	      0.0000000
     -1.2388196	      0.0866407	      0.0000000
     -1.2971673	      0.0830763	      0.0000000
     -1.3521260	      0.0785199	      0.0000000
     -1.4032293	      0.0729680	      0.0000000
     -1.4500296	      0.0664249	      0.0000000
     -1.4921002	      0.0589025	      0.0000000
     -1.5290387	      0.0504196	      0.0000000
     -1.5604669	      0.0410022	      0.0000000
     -1.5860350	      0.0306812	      0.0000000
     -1.6054127	      0.0194926	      0.0000000
     -1.6183084	      0.0074708	      0.0000000
     -1.6244281	     -0.0053804	      0.0000000
     -1.6235143	     -0.0190203	      0.0000000
     -1.6154770	     -0.0333243	      0.0000000
     -1.6002172	     -0.0481553	      0.0000000
     -1.5776991	     -0.0633791	      0.0000000
     -1.5479255	     -0.0788590	      0.0000000
     -1.5109490	     -0.0944534	      0.0000000
     -1.4668707	     -0.1100129	      0.0000000
     -1.4158446	     -0.1253787	      0.0000000
     -1.3580790	     -0.1403820	      0.0000000
     -1.2938400	     -0.1548432	      0.0000000
     -1.2234545	     -0.1685731	      0.0000000
     -1.1473129	     -0.1813735	      0.0000000
     -1.0658728	     -0.1930391	      0.0000000
     -0.9796613	     -0.2033602	      0.0000000
     -0.8892781	     -0.2121261	      0.0000000
     -0.7953961	     -0.2191291	      0.0000000
     -0.6987629	     -0.2241701	      0.0000000
     -0.6001997	     -0.2270645	      0.0000000
     -0.5005987	     -0.2276494	      0.0000000
     -0.4009188	     -0.2257916	      0.0000000
     -0.3021784	     -0.2213967	      0.0000000
     -0.2054455	     -0.2144200	      0.0000000
     -0.1118286	     -0.2048756	      0.0000000
     -0.0224441	     -0.1928636	      0.0000000
      0.0615458	     -0.1785679	      0.0000000
      0.1390810	     -0.1622692	      0.0000000
      0.2091784	     -0.1442911	      0.0000000
      0.2709738	     -0.1250171	      0.0000000
      0.3237407	     -0.1049088	      0.0000000
      0.3669302	     -0.0844693	      0.0000000
      0.4002024	     -0.0642210	      0.0000000
      0.4234390	     -0.0446918	      0.0000000
      0.4367678	     -0.0263893	      0.0000000
      0.4405579	     -0.0097706	      0.0000000
      0.4354207	      0.0047760	      0.0000000
      0.4222101	      0.0170520	      0.0000000
      0.4020463	      0.0270387	      0.0000000
      0.3760212	      0.0347560	      0.0000000
      0.3452966	      0.0402945	      0.0000000
      0.3110077	      0.0437915	      0.0000000
      0.2742697	      0.0454021	      0.0000000
      0.2361313	      0.0452685	      0.0000000
      0.1976227	      0.0434727	      0.0000000
      0.1596766	      0.0400333	      0.0000000
      0.1233241	      0.0348583	      0.0000000
      0.0893768	      0.0279428	      0.0000000
      0.0591114	      0.0193029	      0.0000000
      0.0329789	      0.0100093	      0.0000000
      0.0133438	      0.0014950	      0.0000000
      0.0000000	      0.0000000	      0.0000000
      0.0000000	      0.0000000	      0.0000000
     -0.0095195	     -0.0456495	      0.0000000
     -0.0030937	     -0.0795034	      0.0000000
      0.0145518	     -0.1016247	      0.0000000
      0.0349923	     -0.1131437	      0.0000000
      0.0580469	     -0.1156063	      0.0000000
      0.0794975	     -0.1108847	      0.0000000
      0.0980290	     -0.1008909	      0.0000000
      0.1117227	     -0.0874649	      0.0000000
      0.1198393	     -0.0722257	      0.0000000
      0.1218025	     -0.0564967	      0.0000000
      0.1175709	     -0.0412450	      0.0000000
      0.1072797	     -0.0270749	      0.0000000
      0.0912539	     -0.0142562	      0.0000000
      0.0698428	     -0.0027759	      0.0000000
      0.0433764	      0.0075749	      0.0000000
      0.0121989	      0.0170764	      0.0000000
     -0.0234502	      0.0260467	      0.0000000
     -0.0633925	      0.0347819	      0.0000000
     -0.1075192	      0.0435176	      0.0000000
     -0.1557655	      0.0524032	      0.0000000
     -0.2080795	      0.0615071	      0.0000000
     -0.2643969	      0.0708201	      0.0000000
     -0.3246239	      0.0802737	      0.0000000
     -0.3886228	      0.0897632	      0.0000000
     -0.4562025	      0.0991631	      0.0000000
     -0.5271147	      0.1083369	      0.0000000
     -0.6010542	      0.1171447	      0.0000000
     -0.6776613	      0.1254468	      0.0000000
     -0.7565250	      0.1331069	      0.0000000
     -0.8371890	      0.1399933	      0.0000000
     -0.9191583	      0.1459813	      0.0000000
     -1.0019062	      0.1509553	      0.0000000
     -1.0848800	      0.1548111	      0.0000000
     -1.1675083	      0.1574552	      0.0000000
     -1.2492084	      0.1588064	      0.0000000
     -1.3293931	      0.1587957	      0.0000000
     -1.4074777	      0.1573676	      0.0000000
     -1.4828867	      0.1544794	      0.0000000
     -1.5550591	      0.1501020	      0.0000000
     -1.6234539	      0.1442195	      0.0000000
     -1.6875540	      0.1368284	      0.0000000
     -1.7468706	      0.1279376	      0.0000000
     -1.8009453	      0.1175673	      0.0000000
     -1.8493532	      0.1057484	      0.0000000
     -1.8917038	      0.0925214	      0.0000000
     -1.9276424	      0.0779358	      0.0000000
     -1.9568498	      0.0620487	      0.0000000
     -1.9790437	      0.0449224	      0.0000000
     -1.9939708	      0.0266251	      0.0000000
     -2.0014399	      0.0072239	      0.0000000
     -2.0012244	     -0.0132418	      0.0000000
     -1.9932536	     -0.0346271	      0.0000000
     -1.9775337	     -0.0567235	      0.0000000
     -1.9540737	     -0.0793665	      0.0000000
     -1.9229237	     -0.1023800	      0.0000000
     -1.8841623	     -0.1255853	      0.0000000
     -1.8379044	     -0.1487946	      0.0000000
     -1.7843020	     -0.1718095	      0.0000000
     -1.7235478	     -0.1944197	      0.0000000
     -1.6558777	     -0.2164017	      0.0000000
     -1.5815739	     -0.2375187	      0.0000000
     -1.5009691	     -0.2575204	      0.0000000
     -1.4144494	     -0.2761446	      0.0000000
     -1.3224592	     -0.2931189	      0.0000000
     -1.2255043	     -0.3081633	      0.0000000
     -1.1241559	     -0.3209950	      0.0000000
     -1.0190536	     -0.3313327	      0.0000000
     -0.9109078	     -0.3389032	      0.0000000
     -0.8005010	     -0.3434491	      0.0000000
     -0.6886872	     -0.3447376	      0.0000000
     -0.5763904	     -0.3425705	      0.0000000
     -0.4646003	     -0.3367958	      0.0000000
     -0.3543663	     -0.3273203	      0.0000000
     -0.2467868	     -0.3141249	      0.0000000
     -0.1430030	     -0.2972773	      0.0000000
     -0.0441717	     -0.2769738	      0.0000000
      0.0485053	     -0.2535242	      0.0000000
      0.1338911	     -0.2273787	      0.0000000
      0.2109580	     -0.1990570	      0.0000000
      0.2787810	     -0.1691439	      0.0000000
      0.3365978	     -0.1383400	      0.0000000
      0.3838243	     -0.1073789	      0.0000000
      0.4200821	     -0.0770235	      0.0000000
      0.4452427	     -0.0480339	      0.0000000
      0.4594162	     -0.0211216	      0.0000000
      0.4630146	      0.0030481	      0.0000000
      0.4566450	      0.0239672	      0.0000000
      0.4414384	      0.0414522	      0.0000000
      0.4185026	      0.0554683	      0.0000000
      0.3890839	      0.0660662	      0.0000000
      0.3544504	      0.0733865	      0.0000000
      0.3158916	      0.0776127	      0.0000000
      0.2746577	      0.0789301	      0.0000000
      0.2320035	      0.0774653	      0.0000000
      0.1890798	      0.0732677	      0.0000000
      0.1471695	      0.0662567	      0.0000000
      0.1072826	      0.0563872	      0.0000000
      0.0711092	      0.0436025	      0.0000000
      0.0393409	      0.0286612	      0.0000000
      0.0155716	      0.0126145	      0.0000000
      0.0000000	      0.0000000	      0.0000000
      0.0000000	      0.0000000	      0.0000000
     -0.0085760	     -0.0582779	      0.0000000
     -0.0013805	     -0.1015239	      0.0000000
      0.0164734	     -0.1297101	      0.0000000
      0.0362349	     -0.1440215	      0.0000000
      0.0577180	     -0.1463522	      0.0000000
      0.0767223	     -0.1390785	      0.0000000
      0.0919879	     -0.1247118	      0.0000000
      0.1016422	     -0.1056707	      0.0000000
      0.1049806	     -0.0840943	      0.0000000
      0.1014339	     -0.0617274	      0.0000000
      0.0909454	     -0.0398472	      0.0000000
      0.0736015	     -0.0192601	      0.0000000
      0.0496579	     -0.0003205	      0.0000000
      0.0193639	      0.0169834	      0.0000000
     -0.0168795	      0.0328070	      0.0000000
     -0.0587653	      0.0474764	      0.0000000
     -0.1060130	      0.0613939	      0.0000000
     -0.1584271	      0.0749207	      0.0000000
     -0.2158453	      0.0883381	      0.0000000
     -0.2781225	      0.1018155	      0.0000000
     -0.3451005	      0.1154104	      0.0000000
     -0.4165881	      0.1290823	      0.0000000
     -0.4923482	      0.1427184	      0.0000000
     -0.5720892	      0.1561597	      0.0000000
     -0.6554601	      0.1692215	      0.0000000
     -0.7420505	      0.1817074	      0.0000000
     -0.8313936	      0.1934195	      0.0000000
     -0.9229714	      0.2041646	      0.0000000
     -1.0162215	      0.2137586	      0.0000000
     -1.1105456	      0.2220297	      0.0000000
     -1.2053177	      0.2288204	      0.0000000
     -1.2998944	      0.2339905	      0.0000000
     -1.3936220	      0.2374181	      0.0000000
     -1.4858463	      0.2390009	      0.0000000
     -1.5759205	      0.2386563	      0.0000000
     -1.6632132	      0.2363218	      0.0000000
     -1.7471151	      0.2319550	      0.0000000
     -1.8270457	      0.2255327	      0.0000000
     -1.9024578	      0.2170508	      0.0000000
     -1.9728416	      0.2065226	      0.0000000
     -2.0377282	      0.1939778	      0.0000000
     -2.0966910	      0.1794612	      0.0000000
     -2.1493469	      0.1630311	      0.0000000
     -2.1953571	      0.1447575	      0.0000000
     -2.2344262	      0.1247209	      0.0000000
     -2.2663015	      0.1030105	      0.0000000
     -2.2907715	      0.0797227	      0.0000000
     -2.3076648	      0.0549587	      0.0000000
     -2.3168441	      0.0288264	      0.0000000
     -2.3182436	      0.0014202	      0.0000000
     -2.3117124	     -0.0271417	      0.0000000
     -2.2973943	     -0.0566146	      0.0000000
     -2.2753177	     -0.0867682	      0.0000000
     -2.2455649	     -0.1174137	      0.0000000
     -2.2082256	     -0.1483493	      0.0000000
     -2.1634111	     -0.1793665	      0.0000000
     -2.1112539	     -0.2102445	      0.0000000
     -2.0519116	     -0.2407489	      0.0000000
     -1.9855700	     -0.2706299	      0.0000000
     -1.9124469	     -0.2996210	      0.0000000
     -1.8327958	     -0.3274383	      0.0000000
     -1.7469110	     -0.3537802	      0.0000000
     -1.6551319	     -0.3783291	      0.0000000
     -1.5578481	     -0.4007525	      0.0000000
     -1.4555044	     -0.4207066	      0.0000000
     -1.3486058	     -0.4378409	      0.0000000
     -1.2377217	     -0.4518034	      0.0000000
     -1.1234899	     -0.4622484	      0.0000000
     -1.0066191	     -0.4688452	      0.0000000
     -0.8878908	     -0.4712886	      0.0000000
     -0.7681591	     -0.4693107	      0.0000000
     -0.6483484	     -0.4626950	      0.0000000
     -0.5294496	     -0.4512912	      0.0000000
     -0.4125131	     -0.4350318	      0.0000000
     -0.2986396	     -0.4139524	      0.0000000
     -0.1889698	     -0.3882081	      0.0000000
     -0.0846838	     -0.3581139	      0.0000000
      0.0130390	     -0.3241415	      0.0000000
      0.1029567	     -0.2868971	      0.0000000
      0.1840555	     -0.2471575	      0.0000000
      0.2553600	     -0.2057528	      0.0000000
      0.3160929	     -0.1635954	      0.0000000
      0.3656400	     -0.1216772	      0.0000000
      0.4036212	     -0.0810024	      0.0000000
      0.4298801	     -0.0425503	      0.0000000
      0.4445821	     -0.0072493	      0.0000000
      0.4480413	      0.0240080	      0.0000000
      0.4411514	      0.0507374	      0.0000000
      0.4249736	      0.0727962	      0.0000000
      0.4007090	      0.0901409	      0.0000000
      0.3696549	      0.1028661	      0.0000000
      0.3331746	      0.1111427	      0.0000000
      0.2926344	      0.1151669	      0.0000000
      0.2494441	      0.1150893	      0.0000000
      0.2049257	      0.1109720	      0.0000000
      0.1605807	      0.1027288	      0.0000000
      0.1176233	      0.0902209	      0.0000000
      0.0781157	      0.0732309	      0.0000000
      0.0430186	      0.0519888	      0.0000000
      0.0168050	      0.0268880	      0.0000000
      0.0000000	      0.0000000	      0.0000000
      0.0000000	      0.0000000	      0.0000000
     -0.0082143	     -0.0717587	      0.0000000
     -0.0011094	     -0.1238760	      0.0000000
      0.0157593	     -0.1571870	      0.0000000
      0.0333715	     -0.1732090	      0.0000000
      0.0515562	     -0.1743689	      0.0000000
      0.0662048	     -0.1636041	      0.0000000
      0.0761942	     -0.1440382	      0.0000000