# vtk DataFile Version 2.0
vw
ASCII
DATASET STRUCTURED_POINTS
DIMENSIONS  102  102    1
ORIGIN      0.0000000      0.0000000      0.0000000
SPACING      0.0100000      0.0100000      0.0100000
POINT_DATA  10404
VECTORS velocity float
      0.0000000	      0.0000000	      0.0000000
      0.0000000	      0.0000000	      0.0000000
      0.0000000	      0.0000000	      0.0000000
      0.0000000	      0.0000000	      0.0000000
      0.0000000	      0.0000000	      0.0000000
      0.0000000	      0.0000000	      0.0000000
      0.0000000	      0.0000000	      0.0000000
      0.0000000	      0.0000000	      0.0000000
      0.0000000	      0.0000000	      0.0000000
      0.0000000	      0.0000000	      0.0000000
      0.0000000	      0.0000000	      0.0000000
      0.0000000	      0.0000000	      0.0000000
      0.0000000	      0.0000000	      0.0000000
      0.0000000	      0.0000000	      0.0000000
      0.0000000	      0.0000000	      0.0000000
      0.0000000	      0.0000000	      0.0000000
      0.0000000	      0.0000000	      0.0000000
      0.0000000	      0.0000000	      0.0000000
      0.0000000	      0.0000000	      0.0000000
      0.0000000	      0.0000000	      0.0000000
      0.0000000	      0.0000000	      0.0000000
      0.0000000	      0.0000000	      0.0000000
      0.0000000	      0.0000000	      0.0000000
      0.0000000	      0.0000000	      0.0000000
      0.0000000	      0.0000000	      0.0000000
      0.0000000	      0.0000000	      0.0000000
      0.0000000	      0.0000000	      0.0000000
      0.0000000	      0.0000000	      0.0000000
      0.0000000	      0.0000000	      0.0000000
      0.0000000	      0.0000000	      0.0000000
      0.0000000	      0.0000000	      0.0000000
      0.0000000	      0.0000000	      0.0000000
      0.0000000	      0.0000000	      0.0000000
      0.0000000	      0.0000000	      0.0000000
      0.0000000	      0.0000000	      0.0000000
      0.0000000	      0.0000000	      0.0000000
      0.0000000	      0.0000000	      0.0000000
      0.0000000	      0.0000000	      0.0000000
      0.0000000	      0.0000000	      0.0000000
      0.0000000	      0.0000000	      0.0000000
      0.0000000	      0.0000000	      0.0000000
      0.0000000	      0.0000000	      0.0000000
      0.0000000	      0.0000000	      0.0000000
      0.0000000	      0.0000000	      0.0000000
      0.0000000	      0.0000000	      0.0000000
      0.0000000	      0.0000000	      0.0000000
      0.0000000	      0.0000000	      0.0000000
      0.0000000	      0.0000000	      0.0000000
      0.0000000	      0.0000000	      0.0000000
      0.0000000	      0.0000000	      0.0000000
      0.0000000	      0.0000000	      0.0000000
      0.0000000	      0.0000000	      0.0000000
      0.0000000	      0.0000000	      0.0000000
      0.0000000	      0.0000000	      0.0000000
      0.0000000	      0.0000000	      0.0000000
      0.0000000	      0.0000000	      0.0000000
      0.0000000	      0.0000000	      0.0000000
      0.0000000	      0.0000000	      0.0000000
      0.0000000	      0.0000000	      0.0000000
      0.0000000	      0.0000000	      0.0000000
      0.0000000	      0.0000000	      0.0000000
      0.0000000	      0.0000000	      0.0000000
      0.0000000	      0.0000000	      0.0000000
      0.0000000	      0.0000000	      0.0000000
      0.0000000	      0.0000000	      0.0000000
      0.0000000	      0.0000000	      0.0000000
      0.0000000	      0.0000000	      0.0000000
      0.0000000	      0.0000000	      0.0000000
      0.0000000	      0.0000000	      0.0000000
      0.0000000	      0.0000000	      0.0000000
      0.0000000	      0.0000000	      0.0000000
      0.0000000	      0.0000000	      0.0000000
      0.0000000	      0.0000000	      0.0000000
      0.0000000	      0.0000000	      0.0000000
      0.0000000	      0.0000000	      0.0000000
      0.0000000	      0.0000000	      0.0000000
      0.0000000	      0.0000000	      0.0000000
      0.0000000	      0.0000000	      0.0000000
      0.0000000	      0.0000000	      0.0000000
      0.0000000	      0.0000000	      0.0000000
      0.0000000	      0.0000000	      0.0000000
      0.0000000	      0.0000000	      0.0000000
      0.0000000	      0.0000000	      0.0000000
      0.0000000	      0.0000000	      0.0000000
      0.0000000	      0.0000000	      0.0000000
      0.0000000	      0.0000000	      0.0000000
      0.0000000	      0.0000000	      0.0000000
      0.0000000	      0.0000000	      0.0000000
      0.0000000	      0.0000000	      0.0000000
      0.0000000	      0.0000000	      0.0000000
      0.0000000	      0.0000000	      0.0000000
      0.0000000	      0.0000000	      0.0000000
      0.0000000	      0.0000000	      0.0000000
      0.0000000	      0.0000000	      0.0000000
      0.0000000	      0.0000000	      0.0000000
      0.0000000	      0.0000000	      0.0000000
      0.0000000	      0.0000000	      0.0000000
      0.0000000	      0.0000000	      0.0000000
      0.0000000	      0.0000000	      0.0000000
      0.0000000	      0.0000000	      0.0000000
      0.0000000	      0.0000000	      0.0000000
      0.0000000	      0.0000000	      0.0000000
      0.0000000	      0.0000000	      0.0000000
     -0.0121565	     -0.0151235	      0.0000000
     -0.0110674	     -0.0214589	      0.0000000
     -0.0010420	     -0.0247188	      0.0000000
      0.0101986	     -0.0260880	      0.0000000
      0.0235268	     -0.0261994	      0.0000000
      0.0361197	     -0.0254604	      0.0000000
      0.0476116	     -0.0241221	      0.0000000
      0.0569600	     -0.0224522	      0.0000000
      0.0639653	     -0.0206505	      0.0000000
      0.0684344	     -0.0188898	      0.0000000
      0.0705088	     -0.0172818	      0.0000000
      0.0703958	     -0.0158907	      0.0000000
      0.0683990	     -0.0147306	      0.0000000
      0.0648113	     -0.0137805	      0.0000000
      0.0598936	     -0.0129939	      0.0000000
      0.0538405	     -0.0123143	      0.0000000
      0.0467788	     -0.0116843	      0.0000000
      0.0387619	     -0.0110553	      0.0000000
      0.0297877	     -0.0103931	      0.0000000
      0.0198121	     -0.0096771	      0.0000000
      0.0087697	     -0.0088980	      0.0000000
     -0.0034160	     -0.0080490	      0.0000000
     -0.0168185	     -0.0071314	      0.0000000
     -0.0314936	     -0.0061580	      0.0000000
     -0.0474817	     -0.0051406	      0.0000000
     -0.0648049	     -0.0040918	      0.0000000
     -0.0834657	     -0.0030238	      0.0000000
     -0.1034485	     -0.0019489	      0.0000000
     -0.1247161	     -0.0008782	      0.0000000
     -0.1472167	      0.0001755	      0.0000000
     -0.1708704	      0.0011918	      0.0000000
     -0.1955799	      0.0021547	      0.0000000
     -0.2212297	      0.0030510	      0.0000000
     -0.2476873	      0.0038671	      0.0000000
     -0.2748034	      0.0045892	      0.0000000
     -0.3024135	      0.0052034	      0.0000000
     -0.3303380	      0.0056959	      0.0000000
     -0.3583847	      0.0060537	      0.0000000
     -0.3863493	      0.0062643	      0.0000000
     -0.4140177	      0.0063163	      0.0000000
     -0.4411673	      0.0061991	      0.0000000
     -0.4675690	      0.0059035	      0.0000000
     -0.4929888	      0.0054216	      0.0000000
     -0.5171900	      0.0047469	      0.0000000
     -0.5399342	      0.0038744	      0.0000000
     -0.5609844	      0.0028007	      0.0000000
     -0.5801043	      0.0015249	      0.0000000
     -0.5970674	      0.0000483	      0.0000000
     -0.6116430	     -0.0016170	      0.0000000
     -0.6236259	     -0.0034551	      0.0000000
     -0.6328110	     -0.0054934	      0.0000000
     -0.6389700	     -0.0077709	      0.0000000
     -0.6418677	     -0.0102713	      0.0000000
     -0.6413104	     -0.0129589	      0.0000000
     -0.6371440	     -0.0158017	      0.0000000
     -0.6292486	     -0.0187680	      0.0000000
     -0.6175415	     -0.0218253	      0.0000000
     -0.6019768	     -0.0249388	      0.0000000
     -0.5825488	     -0.0280703	      0.0000000
     -0.5592952	     -0.0311782	      0.0000000
     -0.5323004	     -0.0342171	      0.0000000
     -0.5016991	     -0.0371383	      0.0000000
     -0.4676795	     -0.0398897	      0.0000000
     -0.4304866	     -0.0424174	      0.0000000
     -0.3904242	     -0.0446659	      0.0000000
     -0.3478563	     -0.0465798	      0.0000000
     -0.3032072	     -0.0481050	      0.0000000
     -0.2569602	     -0.0491909	      0.0000000
     -0.2096545	     -0.0497922	      0.0000000
     -0.1618796	     -0.0498713	      0.0000000
     -0.1142677	     -0.0494007	      0.0000000
     -0.0674829	     -0.0483669	      0.0000000
     -0.0222066	     -0.0467715	      0.0000000
      0.0208795	     -0.0446426	      0.0000000
      0.0611143	     -0.0420292	      0.0000000
      0.0978972	     -0.0389756	      0.0000000
      0.1306831	     -0.0355537	      0.0000000
      0.1590139	     -0.0318557	      0.0000000
      0.1825386	     -0.0279824	      0.0000000
      0.2010276	     -0.0240473	      0.0000000
      0.2143886	     -0.0201661	      0.0000000
      0.2226722	     -0.0164511	      0.0000000
      0.2260691	     -0.0130073	      0.0000000
      0.2249087	     -0.0099281	      0.0000000
      0.2196380	     -0.0072858	      0.0000000
      0.2108137	     -0.0051339	      0.0000000
      0.1990406	     -0.0034485	      0.0000000
      0.1849018	     -0.0021733	      0.0000000
      0.1689584	     -0.0012879	      0.0000000
      0.1517580	     -0.0007586	      0.0000000
      0.1337994	     -0.0005452	      0.0000000
      0.1155424	     -0.0006076	      0.0000000
      0.0973903	     -0.0009137	      0.0000000
      0.0797335	     -0.0014566	      0.0000000
      0.0629280	     -0.0022511	      0.0000000
      0.0474056	     -0.0033643	      0.0000000
      0.0335782	     -0.0048161	      0.0000000
      0.0219608	     -0.0066417	      0.0000000
      0.0129245	     -0.0081798	      0.0000000
      0.0059135	     -0.0083276	      0.0000000
      0.0000000	      0.0000000	      0.0000000
      0.0000000	      0.0000000	      0.0000000
     -0.0122717	     -0.0247928	      0.0000000
     -0.0092213	     -0.0393153	      0.0000000
      0.0047340	     -0.0479992	      0.0000000
      0.0215587	     -0.0522328	      0.0000000
      0.0413958	     -0.0530636	      0.0000000
      0.0604744	     -0.0513725	      0.0000000
      0.0778493	     -0.0478833	      0.0000000
      0.0919399	     -0.0433044	      0.0000000
      0.1022541	     -0.0382211	      0.0000000
      0.1084115	     -0.0331173	      0.0000000
      0.1105053	     -0.0283286	      0.0000000
      0.1087698	     -0.0240555	      0.0000000
      0.1035940	     -0.0203667	      0.0000000
      0.0953783	     -0.0172299	      0.0000000
      0.0844925	     -0.0145391	      0.0000000
      0.0712262	     -0.0121642	      0.0000000
      0.0557747	     -0.0099599	      0.0000000
      0.0382385	     -0.0077956	      0.0000000
      0.0186363	     -0.0055726	      0.0000000
     -0.0030712	     -0.0032242	      0.0000000
     -0.0269588	     -0.0007200	      0.0000000
     -0.0531142	      0.0019500	      0.0000000
     -0.0815952	      0.0047621	      0.0000000
     -0.1124459	      0.0076840	      0.0000000
     -0.1456797	      0.0106800	      0.0000000
     -0.1812774	      0.0137112	      0.0000000
     -0.2191836	      0.0167376	      0.0000000
     -0.2593066	      0.0197181	      0.0000000
     -0.3015178	      0.0226119	      0.0000000
     -0.3456520	      0.0253738	      0.0000000
     -0.3915105	      0.0279570	      0.0000000
     -0.4388647	      0.0303200	      0.0000000
     -0.4874551	      0.0324235	      0.0000000
     -0.5369945	      0.0342293	      0.0000000
     -0.5871706	      0.0357007	      0.0000000
     -0.6376496	      0.0368026	      0.0000000
     -0.6880789	      0.0375024	      0.0000000
     -0.7380909	      0.0377703	      0.0000000
     -0.7873064	      0.0375796	      0.0000000
     -0.8353380	      0.0369076	      0.0000000
     -0.8817937	      0.0357350	      0.0000000
     -0.9262799	      0.0340465	      0.0000000
     -0.9684050	      0.0318311	      0.0000000
     -1.0077823	      0.0290818	      0.0000000
     -1.0440326	      0.0257960	      0.0000000
     -1.0767879	      0.0219751	      0.0000000
     -1.1056916	      0.0176258	      0.0000000
     -1.1304049	      0.0127584	      0.0000000
     -1.1505971	      0.0073923	      0.0000000
     -1.1659619	      0.0015500	      0.0000000
     -1.1761679	     -0.0047821	      0.0000000
     -1.1809465	     -0.0116359	      0.0000000
     -1.1800635	     -0.0189696	      0.0000000
     -1.1733295	     -0.0266947	      0.0000000
     -1.1606113	     -0.0347313	      0.0000000
     -1.1418214	     -0.0429981	      0.0000000
     -1.1169250	     -0.0514118	      0.0000000
     -1.0859391	     -0.0598838	      0.0000000
     -1.0489362	     -0.0683191	      0.0000000
     -1.0060476	     -0.0766155	      0.0000000
     -0.9574659	     -0.0846631	      0.0000000
     -0.9034489	     -0.0923454	      0.0000000
     -0.8443230	     -0.0995397	      0.0000000
     -0.7804857	     -0.1061183	      0.0000000
     -0.7124083	     -0.1119513	      0.0000000
     -0.6406375	     -0.1169080	      0.0000000
     -0.5657959	     -0.1208609	      0.0000000
     -0.4885808	     -0.1236887	      0.0000000
     -0.4097618	     -0.1252811	      0.0000000
     -0.3301760	     -0.1255432	      0.0000000
     -0.2507203	     -0.1244013	      0.0000000
     -0.1723411	     -0.1218092	      0.0000000
     -0.0960232	     -0.1177552	      0.0000000
     -0.0227615	     -0.1122708	      0.0000000
      0.0464265	     -0.1054444	      0.0000000
      0.1105890	     -0.0974107	      0.0000000
      0.1688565	     -0.0883249	      0.0000000
      0.2204570	     -0.0783960	      0.0000000
      0.2647457	     -0.0678694	      0.0000000
      0.3012300	     -0.0570193	      0.0000000
      0.3296024	     -0.0461413	      0.0000000
      0.3497553	     -0.0355321	      0.0000000
      0.3617884	     -0.0254814	      0.0000000
      0.3660190	     -0.0162569	      0.0000000
      0.3629577	     -0.0080885	      0.0000000
      0.3533245	     -0.0011429	      0.0000000
      0.3379448	      0.0045559	      0.0000000
      0.3177764	      0.0090553	      0.0000000
      0.2937468	      0.0123866	      0.0000000
      0.2667929	      0.0146218	      0.0000000
      0.2377987	      0.0158536	      0.0000000
      0.2076053	      0.0161796	      0.0000000
      0.1769801	      0.0156833	      0.0000000
      0.1466670	      0.0144003	      0.0000000
      0.1173384	      0.0123227	      0.0000000
      0.0897487	      0.0093532	      0.0000000
      0.0645212	      0.0054792	      0.0000000
      0.0425341	      0.0006874	      0.0000000
      0.0241105	     -0.0039674	      0.0000000
      0.0101441	     -0.0069931	      0.0000000
      0.0000000	      0.0000000	      0.0000000
      0.0000000	      0.0000000	      0.0000000
     -0.0108542	     -0.0336379	      0.0000000
     -0.0058164	     -0.0579363	      0.0000000
      0.0106800	     -0.0735098	      0.0000000
      0.0304347	     -0.0815475	      0.0000000
      0.0532771	     -0.0833586	      0.0000000
      0.0750708	     -0.0803421	      0.0000000
      0.0945633	     -0.0738371	      0.0000000
      0.1099124	     -0.0651219	      0.0000000
      0.1204439	     -0.0553028	      0.0000000
      0.1256503	     -0.0452816	      0.0000000
      0.1255539	     -0.0357062	      0.0000000
      0.1203553	     -0.0269738	      0.0000000
      0.1104389	     -0.0192437	      0.0000000
      0.0962175	     -0.0124864	      0.0000000
      0.0780739	     -0.0065399	      0.0000000
      0.0563280	     -0.0011742	      0.0000000
      0.0311882	      0.0038584	      0.0000000
      0.0028080	      0.0087803	      0.0000000
     -0.0287714	      0.0137635	      0.0000000
     -0.0635356	      0.0189211	      0.0000000
     -0.1015146	      0.0243074	      0.0000000
     -0.1427339	      0.0299182	      0.0000000
     -0.1872017	      0.0357112	      0.0000000
     -0.2348954	      0.0416251	      0.0000000
     -0.2857489	      0.0475850	      0.0000000
     -0.3396486	      0.0535086	      0.0000000
     -0.3964308	      0.0593107	      0.0000000
     -0.4558827	      0.0649045	      0.0000000
     -0.5177432	      0.0702043	      0.0000000
     -0.5817062	      0.0751239	      0.0000000
     -0.6474261	      0.0795785	      0.0000000
     -0.7145213	      0.0834892	      0.0000000
     -0.7825770	      0.0867819	      0.0000000
     -0.8511501	      0.0893879	      0.0000000
     -0.9197750	      0.0912441	      0.0000000
     -0.9879684	      0.0922934	      0.0000000
     -1.0552351	      0.0924857	      0.0000000
     -1.1210733	      0.0917783	      0.0000000
     -1.1849796	      0.0901360	      0.0000000
     -1.2464537	      0.0875318	      0.0000000
     -1.3050030	      0.0839465	      0.0000000
     -1.3601468	      0.0793692	      0.0000000
     -1.4114195	      0.0737966	      0.0000000
     -1.4583744	      0.0672332	      0.0000000
     -1.5005859	      0.0596908	      0.0000000
     -1.5376522	      0.0511883	      0.0000000
     -1.5691960	      0.0417514	      0.0000000
     -1.5948681	      0.0314107	      0.0000000
     -1.6143395	      0.0202013	      0.0000000
     -1.6273174	      0.0081579	      0.0000000
     -1.6335134	     -0.0047149	      0.0000000
     -1.6326566	     -0.0183799	      0.0000000
     -1.6246650	     -0.0327135	      0.0000000
     -1.6094364	     -0.0475783	      0.0000000
     -1.5869362	     -0.0628399	      0.0000000
     -1.5571661	     -0.0783620	      0.0000000
     -1.5201778	     -0.0940032	      0.0000000
     -1.4760715	     -0.1096145	      0.0000000
     -1.4249996	     -0.1250371	      0.0000000
     -1.3671690	     -0.1401024	      0.0000000
     -1.3028443	     -0.1546309	      0.0000000
     -1.2323507	     -0.1684331	      0.0000000
     -1.1560770	     -0.1813105	      0.0000000
     -1.0744793	     -0.1930573	      0.0000000
     -0.9880835	     -0.2034630	      0.0000000
     -0.8974876	     -0.2123160	      0.0000000
     -0.8033640	     -0.2194076	      0.0000000
     -0.7064593	     -0.2245373	      0.0000000
     -0.6075943	     -0.2275190	      0.0000000
     -0.5076614	     -0.2281882	      0.0000000
     -0.4076198	     -0.2264098	      0.0000000
     -0.3084890	     -0.2220875	      0.0000000
     -0.2113386	     -0.2151742	      0.0000000
     -0.1172791	     -0.2056817	      0.0000000
     -0.0274309	     -0.1937068	      0.0000000
      0.0570444	     -0.1794314	      0.0000000
      0.1350733	     -0.1631348	      0.0000000
      0.2056703	     -0.1451421	      0.0000000
      0.2679626	     -0.1258331	      0.0000000
      0.3212163	     -0.1056711	      0.0000000
      0.3648746	     -0.0851606	      0.0000000
      0.3985897	     -0.0648259	      0.0000000
      0.4222355	     -0.0451979	      0.0000000
      0.4359331	     -0.0267874	      0.0000000
      0.4400448	     -0.0100556	      0.0000000
      0.4351791	      0.0046033	      0.0000000
      0.4221830	      0.0169848	      0.0000000
      0.4021815	      0.0270674	      0.0000000
      0.3762684	      0.0348695	      0.0000000
      0.3456107	      0.0404800	      0.0000000
      0.3113490	      0.0440355	      0.0000000
      0.2746050	      0.0456913	      0.0000000
      0.2364342	      0.0455900	      0.0000000
      0.1978740	      0.0438141	      0.0000000
      0.1598643	      0.0403826	      0.0000000
      0.1234439	      0.0352026	      0.0000000
      0.0894317	      0.0282670	      0.0000000
      0.0591141	      0.0195883	      0.0000000
      0.0329486	      0.0102312	      0.0000000
      0.0133130	      0.0016236	      0.0000000
      0.0000000	      0.0000000	      0.0000000
      0.0000000	      0.0000000	      0.0000000
     -0.0092973	     -0.0457257	      0.0000000
     -0.0026617	     -0.0796457	      0.0000000
      0.0151996	     -0.1017797	      0.0000000
      0.0358452	     -0.1132526	      0.0000000
      0.0590596	     -0.1156120	      0.0000000
      0.0806148	     -0.1107456	      0.0000000
      0.0991830	     -0.1005854	      0.0000000
      0.1128455	     -0.0869918	      0.0000000
      0.1208654	     -0.0716008	      0.0000000
      0.1226749	     -0.0557473	      0.0000000
      0.1182415	     -0.0404030	      0.0000000
      0.1077120	     -0.0261712	      0.0000000
      0.0914176	     -0.0133129	      0.0000000
      0.0697157	     -0.0018079	      0.0000000
      0.0429368	      0.0085616	      0.0000000
      0.0114370	      0.0180812	      0.0000000
     -0.0245500	      0.0270745	      0.0000000
     -0.0648435	      0.0358412	      0.0000000
     -0.1093386	      0.0446187	      0.0000000
     -0.1579703	      0.0535540	      0.0000000
     -0.2106870	      0.0627128	      0.0000000
     -0.2674223	      0.0720816	      0.0000000
     -0.3280807	      0.0815883	      0.0000000
     -0.3925213	      0.0911263	      0.0000000
     -0.4605488	      0.1005683	      0.0000000
     -0.5319109	      0.1097769	      0.0000000
     -0.6062980	      0.1186113	      0.0000000
     -0.6833459	      0.1269316	      0.0000000
     -0.7626396	      0.1346012	      0.0000000
     -0.8437191	      0.1414885	      0.0000000
     -0.9260864	      0.1474691	      0.0000000
     -1.0092121	      0.1524286	      0.0000000
     -1.0925413	      0.1562634	      0.0000000
     -1.1755006	      0.1588809	      0.0000000
     -1.2575062	      0.1602009	      0.0000000
     -1.3379702	      0.1601553	      0.0000000
     -1.4163079	      0.1586894	      0.0000000
     -1.4919440	      0.1557615	      0.0000000
     -1.5643183	      0.1513435	      0.0000000
     -1.6328907	      0.1454200	      0.0000000
     -1.6971458	      0.1379884	      0.0000000
     -1.7565959	      0.1290579	      0.0000000
     -1.8107847	      0.1186492	      0.0000000
     -1.8592885	      0.1067934	      0.0000000
     -1.9017186	      0.0935310	      0.0000000
     -1.9377218	      0.0789113	      0.0000000
     -1.9669802	      0.0629910	      0.0000000
     -1.9892127	      0.0458321	      0.0000000
     -2.0041675	      0.0275017	      0.0000000
     -2.0116525	      0.0080670	      0.0000000
     -2.0114467	     -0.0124352	      0.0000000
     -2.0034679	     -0.0338617	      0.0000000
     -1.9877311	     -0.0560026	      0.0000000
     -1.9642432	     -0.0786938	      0.0000000
     -1.9330556	     -0.1017599	      0.0000000
     -1.8942464	     -0.1250228	      0.0000000
     -1.8479301	     -0.1482952	      0.0000000
     -1.7942576	     -0.1713793	      0.0000000
     -1.7334206	     -0.1940653	      0.0000000
     -1.6656534	     -0.2161298	      0.0000000
     -1.5912371	     -0.2373361	      0.0000000
     -1.5105023	     -0.2574338	      0.0000000
     -1.4238339	     -0.2761603	      0.0000000
     -1.3316745	     -0.2932424	      0.0000000
     -1.2345283	     -0.3083997	      0.0000000
     -1.1329652	     -0.3213478	      0.0000000
     -1.0276235	     -0.3318043	      0.0000000
     -0.9192124	     -0.3394944	      0.0000000
     -0.8085136	     -0.3441588	      0.0000000
     -0.6963807	     -0.3455626	      0.0000000
     -0.5837375	     -0.3435054	      0.0000000
     -0.4715740	     -0.3378327	      0.0000000
     -0.3609402	     -0.3284485	      0.0000000
     -0.2529358	     -0.3153308	      0.0000000
     -0.1487033	     -0.2985440	      0.0000000
     -0.0494028	     -0.2782799	      0.0000000
      0.0437652	     -0.2548458	      0.0000000
      0.1296513	     -0.2286898	      0.0000000
      0.2072251	     -0.2003314	      0.0000000
      0.2755529	     -0.1703553	      0.0000000
      0.3338662	     -0.1394627	      0.0000000
      0.3815727	     -0.1083892	      0.0000000
      0.4182858	     -0.0779013	      0.0000000
      0.4438698	     -0.0487625	      0.0000000
      0.4584257	     -0.0216898	      0.0000000
      0.4623620	      0.0026470	      0.0000000
      0.4562728	      0.0237288	      0.0000000
      0.4412911	      0.0413646	      0.0000000
      0.4185252	      0.0555174	      0.0000000
      0.3892247	      0.0662341	      0.0000000
      0.3546626	      0.0736540	      0.0000000
      0.3161342	      0.0779595	      0.0000000
      0.2748971	      0.0793358	      0.0000000
      0.2322138	      0.0779098	      0.0000000
      0.1892432	      0.0737308	      0.0000000
      0.1472771	      0.0667172	      0.0000000
      0.1073339	      0.0568213	      0.0000000
      0.0711138	      0.0439824	      0.0000000
      0.0393149	      0.0289537	      0.0000000
      0.0155443	      0.0127820	      0.0000000
      0.0000000	      0.0000000	      0.0000000
      0.0000000	      0.0000000	      0.0000000
     -0.0083534	     -0.0584551	      0.0000000
     -0.0009464	     -0.1018051	      0.0000000
      0.0171225	     -0.1300012	      0.0000000
      0.0370798	     -0.1442323	      0.0000000
      0.0587035	     -0.1464050	      0.0000000
      0.0777829	     -0.1389186	      0.0000000
      0.0930466	     -0.1243126	      0.0000000
      0.1026232	     -0.1050322	      0.0000000
      0.1058119	     -0.0832386	      0.0000000
      0.1020523	     -0.0606905	      0.0000000
      0.0912962	     -0.0386710	      0.0000000
      0.0736419	     -0.0179839	      0.0000000
      0.0493467	      0.0010267	      0.0000000
      0.0186761	      0.0183802	      0.0000000
     -0.0179660	      0.0342391	      0.0000000
     -0.0602667	      0.0489418	      0.0000000
     -0.1079476	      0.0628994	      0.0000000
     -0.1608126	      0.0764760	      0.0000000
     -0.2186995	      0.0899537	      0.0000000
     -0.2814614	      0.1034988	      0.0000000
     -0.3489379	      0.1171646	      0.0000000
     -0.4209337	      0.1309054	      0.0000000
     -0.4972078	      0.1446044	      0.0000000
     -0.5774640	      0.1580997	      0.0000000
     -0.6613458	      0.1712045	      0.0000000
     -0.7484379	      0.1837211	      0.0000000
     -0.8382681	      0.1954511	      0.0000000
     -0.9303138	      0.2062010	      0.0000000
     -1.0240084	      0.2157873	      0.0000000
     -1.1187497	      0.2240386	      0.0000000
     -1.2139094	      0.2307984	      0.0000000
     -1.3088413	      0.2359279	      0.0000000
     -1.4028905	      0.2393066	      0.0000000
     -1.4954017	      0.2408337	      0.0000000
     -1.5857279	      0.2404282	      0.0000000
     -1.6732381	      0.2380289	      0.0000000
     -1.7573240	      0.2335950	      0.0000000
     -1.8374066	      0.2271046	      0.0000000
     -1.9129406	      0.2185549	      0.0000000
     -1.9834184	      0.2079602	      0.0000000
     -2.0483734	      0.1953511	      0.0000000
     -2.1073815	      0.1807729	      0.0000000
     -2.1600624	      0.1642844	      0.0000000
     -2.2060795	      0.1459558	      0.0000000
     -2.2451398	      0.1258675	      0.0000000
     -2.2769929	      0.1041083	      0.0000000
     -2.3014292	      0.0807741	      0.0000000
     -2.3182791	      0.0559653	      0.0000000
     -2.3274067	      0.0297888	      0.0000000
     -2.3287468	      0.0023396	      0.0000000
     -2.3221529	     -0.0262694	      0.0000000
     -2.3077625	     -0.0557950	      0.0000000
     -2.2856109	     -0.0860025	      0.0000000
     -2.2557793	     -0.1167052	      0.0000000
     -2.2183582	     -0.1477021	      0.0000000
     -2.1734586	     -0.1787862	      0.0000000
     -2.1212125	     -0.2097374	      0.0000000
     -2.0617764	     -0.2403224	      0.0000000
     -1.9953350	     -0.2702919	      0.0000000
     -1.9221045	     -0.2993798	      0.0000000
     -1.8423368	     -0.3273024	      0.0000000
     -1.7563245	     -0.3537582	      0.0000000
     -1.6644050	     -0.3784288	      0.0000000
     -1.5669662	     -0.4009815	      0.0000000
     -1.4644510	     -0.4210713	      0.0000000
     -1.3573628	     -0.4383465	      0.0000000
     -1.2462692	     -0.4524536	      0.0000000
     -1.1318066	     -0.4630450	      0.0000000
     -1.0146826	     -0.4697878	      0.0000000
     -0.8956777	     -0.4723745	      0.0000000
     -0.7756453	     -0.4705347	      0.0000000
     -0.6555096	     -0.4640486	      0.0000000
     -0.5362614	     -0.4527631	      0.0000000
     -0.4189514	     -0.4366071	      0.0000000
     -0.3046815	     -0.4156124	      0.0000000
     -0.1945928	     -0.3899307	      0.0000000
     -0.0898685	     -0.3598709	      0.0000000
      0.0083156	     -0.3259034	      0.0000000
      0.0987032	     -0.2886269	      0.0000000
      0.1802821	     -0.2488234	      0.0000000
      0.2520676	     -0.2073229	      0.0000000
      0.3132753	     -0.1650377	      0.0000000
      0.3632840	     -0.1229636	      0.0000000
      0.4017060	     -0.0821079	      0.0000000
      0.4283762	     -0.0434558	      0.0000000
      0.4434517	     -0.0079406	      0.0000000
      0.4472418	      0.0235347	      0.0000000
      0.4406272	      0.0504714	      0.0000000
      0.4246717	      0.0727218	      0.0000000
      0.4005763	      0.0902372	      0.0000000
      0.3696417	      0.1031088	      0.0000000
      0.3332359	      0.1115050	      0.0000000
      0.2927319	      0.1156211	      0.0000000
      0.2495468	      0.1156071	      0.0000000
      0.2050109	      0.1115243	      0.0000000
      0.1606348	      0.1032854	      0.0000000
      0.1176413	      0.0907487	      0.0000000
      0.0781026	      0.0736933	      0.0000000
      0.0429862	      0.0523437	      0.0000000
      0.0167768	      0.0270906	      0.0000000
      0.0000000	      0.0000000	      0.0000000
      0.0000000	      0.0000000	      0.0000000
     -0.0079968	     -0.0720291	      0.0000000
     -0.0006920	     -0.1242834	      0.0000000
      0.0163708	     -0.1575940	      0.0000000
      0.0341479	     -0.1734921	      0.0000000
      0.0524320	     -0.1744293	      0.0000000
      0.0671054	     -0.1633754	      0.0000000
      0.0770355	     -0.1434902	      0.0000000