# vtk DataFile Version 2.0
vw
ASCII
DATASET STRUCTURED_POINTS
DIMENSIONS  102  102    1
ORIGIN      0.0000000      0.0000000      0.0000000
SPACING      0.0100000      0.0100000      0.0100000
POINT_DATA  10404
VECTORS velocity float
      0.0000000	      0.0000000	      0.0000000
      0.0000000	      0.0000000	      0.0000000
      0.0000000	      0.0000000	      0.0000000
      0.0000000	      0.0000000	      0.0000000
      0.0000000	      0.0000000	      0.0000000
      0.0000000	      0.0000000	      0.0000000
      0.0000000	      0.0000000	      0.0000000
      0.0000000	      0.0000000	      0.0000000
      0.0000000	      0.0000000	      0.0000000
      0.0000000	      0.0000000	      0.0000000
      0.0000000	      0.0000000	      0.0000000
      0.0000000	      0.0000000	      0.0000000
      0.0000000	      0.0000000	      0.0000000
      0.0000000	      0.0000000	      0.0000000
      0.0000000	      0.0000000	      0.0000000
      0.0000000	      0.0000000	      0.0000000
      0.0000000	      0.0000000	      0.0000000
      0.0000000	      0.0000000	      0.0000000
      0.0000000	      0.0000000	      0.0000000
      0.0000000	      0.0000000	      0.0000000
      0.0000000	      0.0000000	      0.0000000
      0.0000000	      0.0000000	      0.0000000
      0.0000000	      0.0000000	      0.0000000
      0.0000000	      0.0000000	      0.0000000
      0.0000000	      0.0000000	      0.0000000
      0.0000000	      0.0000000	      0.0000000
      0.0000000	      0.0000000	      0.0000000
      0.0000000	      0.0000000	      0.0000000
      0.0000000	      0.0000000	      0.0000000
      0.0000000	      0.0000000	      0.0000000
      0.0000000	      0.0000000	      0.0000000
      0.0000000	      0.0000000	      0.0000000
      0.0000000	      0.0000000	      0.0000000
      0.0000000	      0.0000000	      0.0000000
      0.0000000	      0.0000000	      0.0000000
      0.0000000	      0.0000000	      0.0000000
      0.0000000	      0.0000000	      0.0000000
      0.0000000	      0.0000000	      0.0000000
      0.0000000	      0.0000000	      0.0000000
      0.0000000	      0.0000000	      0.0000000
      0.0000000	      0.0000000	      0.0000000
      0.0000000	      0.0000000	      0.0000000
      0.0000000	      0.0000000	      0.0000000
      0.0000000	      0.0000000	      0.0000000
      0.0000000	      0.0000000	      0.0000000
      0.0000000	      0.0000000	      0.0000000
      0.0000000	      0.0000000	      0.0000000
      0.0000000	      0.0000000	      0.0000000
      0.0000000	      0.0000000	      0.0000000
      0.0000000	      0.0000000	      0.0000000
      0.0000000	      0.0000000	      0.0000000
      0.0000000	      0.0000000	      0.0000000
      0.0000000	      0.0000000	      0.0000000
      0.0000000	      0.0000000	      0.0000000
      0.0000000	      0.0000000	      0.0000000
      0.0000000	      0.0000000	      0.0000000
      0.0000000	      0.0000000	      0.0000000
      0.0000000	      0.0000000	      0.0000000
      0.0000000	      0.0000000	      0.0000000
      0.0000000	      0.0000000	      0.0000000
      0.0000000	      0.0000000	      0.0000000
      0.0000000	      0.0000000	      0.0000000
      0.0000000	      0.0000000	      0.0000000
      0.0000000	      0.0000000	      0.0000000
      0.0000000	      0.0000000	      0.0000000
      0.0000000	      0.0000000	      0.0000000
      0.0000000	      0.0000000	      0.0000000
      0.0000000	      0.0000000	      0.0000000
      0.0000000	      0.0000000	      0.0000000
      0.0000000	      0.0000000	      0.0000000
      0.0000000	      0.0000000	      0.0000000
      0.0000000	      0.0000000	      0.0000000
      0.0000000	      0.0000000	      0.0000000
      0.0000000	      0.0000000	      0.0000000
      0.0000000	      0.0000000	      0.0000000
      0.0000000	      0.0000000	      0.0000000
      0.0000000	      0.0000000	      0.0000000
      0.0000000	      0.0000000	      0.0000000
      0.0000000	      0.0000000	      0.0000000
      0.0000000	      0.0000000	      0.0000000
      0.0000000	      0.0000000	      0.0000000
      0.0000000	      0.0000000	      0.0000000
      0.0000000	      0.0000000	      0.0000000
      0.0000000	      0.0000000	      0.0000000
      0.0000000	      0.0000000	      0.0000000
      0.0000000	      0.0000000	      0.0000000
      0.0000000	      0.0000000	      0.0000000
      0.0000000	      0.0000000	      0.0000000
      0.0000000	      0.0000000	      0.0000000
      0.0000000	      0.0000000	      0.0000000
      0.0000000	      0.0000000	      0.0000000
      0.0000000	      0.0000000	      0.0000000
      0.0000000	      0.0000000	      0.0000000
      0.0000000	      0.0000000	      0.0000000
      0.0000000	      0.0000000	      0.0000000
      0.0000000	      0.0000000	      0.0000000
      0.0000000	      0.0000000	      0.0000000
      0.0000000	      0.0000000	      0.0000000
      0.0000000	      0.0000000	      0.0000000
      0.0000000	      0.0000000	      0.0000000
      0.0000000	      0.0000000	      0.0000000
      0.0000000	      0.0000000	      0.0000000
      0.0000000	      0.0000000	      0.0000000
     -0.0017818	     -0.0022824	      0.0000000
     -0.0018649	     -0.0029808	      0.0000000
     -0.0009780	     -0.0032619	      0.0000000
     -0.0002980	     -0.0032542	      0.0000000
      0.0005761	     -0.0031712	      0.0000000
      0.0011505	     -0.0030352	      0.0000000
      0.0016554	     -0.0028909	      0.0000000
      0.0018752	     -0.0027450	      0.0000000
      0.0019470	     -0.0026070	      0.0000000
      0.0017774	     -0.0024789	      0.0000000
      0.0014497	     -0.0023614	      0.0000000
      0.0009243	     -0.0022537	      0.0000000
      0.0002509	     -0.0021541	      0.0000000
     -0.0005879	     -0.0020609	      0.0000000
     -0.0015646	     -0.0019719	      0.0000000
     -0.0026886	     -0.0018853	      0.0000000
     -0.0039467	     -0.0017994	      0.0000000
     -0.0053458	     -0.0017132	      0.0000000
     -0.0068814	     -0.0016256	      0.0000000
     -0.0085595	     -0.0015361	      0.0000000
     -0.0103795	     -0.0014446	      0.0000000
     -0.0123461	     -0.0013512	      0.0000000
     -0.0144601	     -0.0012562	      0.0000000
     -0.0167239	     -0.0011601	      0.0000000
     -0.0191370	     -0.0010638	      0.0000000
     -0.0216989	     -0.0009681	      0.0000000
     -0.0244063	     -0.0008742	      0.0000000
     -0.0272548	     -0.0007833	      0.0000000
     -0.0302375	     -0.0006967	      0.0000000
     -0.0333456	     -0.0006158	      0.0000000
     -0.0365673	     -0.0005422	      0.0000000
     -0.0398888	     -0.0004774	      0.0000000
     -0.0432932	     -0.0004232	      0.0000000
     -0.0467606	     -0.0003816	      0.0000000
     -0.0502683	     -0.0003543	      0.0000000
     -0.0537905	     -0.0003434	      0.0000000
     -0.0572981	     -0.0003510	      0.0000000
     -0.0607589	     -0.0003791	      0.0000000
     -0.0641375	     -0.0004298	      0.0000000
     -0.0673956	     -0.0005050	      0.0000000
     -0.0704920	     -0.0006068	      0.0000000
     -0.0733831	     -0.0007366	      0.0000000
     -0.0760231	     -0.0008961	      0.0000000
     -0.0783646	     -0.0010863	      0.0000000
     -0.0803593	     -0.0013078	      0.0000000
     -0.0819589	     -0.0015607	      0.0000000
     -0.0831158	     -0.0018440	      0.0000000
     -0.0837850	     -0.0021561	      0.0000000
     -0.0839248	     -0.0024943	      0.0000000
     -0.0834985	     -0.0028556	      0.0000000
     -0.0824743	     -0.0032366	      0.0000000
     -0.0808263	     -0.0036334	      0.0000000
     -0.0785353	     -0.0040413	      0.0000000
     -0.0755896	     -0.0044550	      0.0000000
     -0.0719861	     -0.0048688	      0.0000000
     -0.0677309	     -0.0052759	      0.0000000
     -0.0628405	     -0.0056694	      0.0000000
     -0.0573422	     -0.0060419	      0.0000000
     -0.0512744	     -0.0063855	      0.0000000
     -0.0446867	     -0.0066928	      0.0000000
     -0.0376399	     -0.0069562	      0.0000000
     -0.0302054	     -0.0071686	      0.0000000
     -0.0224646	     -0.0073239	      0.0000000
     -0.0145073	     -0.0074167	      0.0000000
     -0.0064306	     -0.0074429	      0.0000000
      0.0016632	     -0.0073997	      0.0000000
      0.0096684	     -0.0072863	      0.0000000
      0.0174788	     -0.0071032	      0.0000000
      0.0249899	     -0.0068526	      0.0000000
      0.0321014	     -0.0065389	      0.0000000
      0.0387194	     -0.0061674	      0.0000000
      0.0447596	     -0.0057457	      0.0000000
      0.0501485	     -0.0052823	      0.0000000
      0.0548257	     -0.0047868	      0.0000000
      0.0587450	     -0.0042694	      0.0000000
      0.0618760	     -0.0037408	      0.0000000
      0.0642030	     -0.0032116	      0.0000000
      0.0657271	     -0.0026920	      0.0000000
      0.0664629	     -0.0021918	      0.0000000
      0.0664412	     -0.0017195	      0.0000000
      0.0657023	     -0.0012823	      0.0000000
      0.0643010	     -0.0008859	      0.0000000
      0.0622935	     -0.0005311	      0.0000000
      0.0597445	     -0.0002179	      0.0000000
      0.0567129	      0.0000531	      0.0000000
      0.0532697	      0.0002820	      0.0000000
      0.0494717	      0.0004701	      0.0000000
      0.0453935	      0.0006182	      0.0000000
      0.0410842	      0.0007288	      0.0000000
      0.0366240	      0.0008004	      0.0000000
      0.0320534	      0.0008349	      0.0000000
      0.0274685	      0.0008242	      0.0000000
      0.0229059	      0.0007677	      0.0000000
      0.0184957	      0.0006445	      0.0000000
      0.0142833	      0.0004531	      0.0000000
      0.0104492	      0.0001525	      0.0000000
      0.0070642	     -0.0002334	      0.0000000
      0.0043229	     -0.0007500	      0.0000000
      0.0023074	     -0.0011854	      0.0000000
      0.0009109	     -0.0013861	      0.0000000
      0.0000000	      0.0000000	      0.0000000
      0.0000000	      0.0000000	      0.0000000
     -0.0020257	     -0.0034840	      0.0000000
     -0.0021863	     -0.0049125	      0.0000000
     -0.0013668	     -0.0055705	      0.0000000
     -0.0006274	     -0.0056413	      0.0000000
      0.0003283	     -0.0054774	      0.0000000
      0.0009322	     -0.0051463	      0.0000000
      0.0013840	     -0.0047592	      0.0000000
      0.0014187	     -0.0043422	      0.0000000
      0.0011745	     -0.0039328	      0.0000000
      0.0005383	     -0.0035382	      0.0000000
     -0.0003960	     -0.0031686	      0.0000000
     -0.0016723	     -0.0028220	      0.0000000
     -0.0032304	     -0.0024977	      0.0000000
     -0.0050870	     -0.0021903	      0.0000000
     -0.0072072	     -0.0018957	      0.0000000
     -0.0095997	     -0.0016085	      0.0000000
     -0.0122477	     -0.0013245	      0.0000000
     -0.0151585	     -0.0010399	      0.0000000
     -0.0183268	     -0.0007524	      0.0000000
     -0.0217599	     -0.0004603	      0.0000000
     -0.0254578	     -0.0001631	      0.0000000
     -0.0294266	      0.0001390	      0.0000000
     -0.0336670	      0.0004446	      0.0000000
     -0.0381815	      0.0007520	      0.0000000
     -0.0429681	      0.0010583	      0.0000000
     -0.0480236	      0.0013606	      0.0000000
     -0.0533408	      0.0016552	      0.0000000
     -0.0589095	      0.0019381	      0.0000000
     -0.0647149	      0.0022050	      0.0000000
     -0.0707384	      0.0024509	      0.0000000
     -0.0769566	      0.0026708	      0.0000000
     -0.0833410	      0.0028592	      0.0000000
     -0.0898582	      0.0030104	      0.0000000
     -0.0964693	      0.0031183	      0.0000000
     -0.1031299	      0.0031769	      0.0000000
     -0.1097901	      0.0031797	      0.0000000
     -0.1163944	      0.0031203	      0.0000000
     -0.1228821	      0.0029924	      0.0000000
     -0.1291868	      0.0027899	      0.0000000
     -0.1352376	      0.0025067	      0.0000000
     -0.1409590	      0.0021377	      0.0000000
     -0.1462720	      0.0016781	      0.0000000
     -0.1510943	      0.0011243	      0.0000000
     -0.1553419	      0.0004737	      0.0000000
     -0.1589302	     -0.0002746	      0.0000000
     -0.1617752	     -0.0011196	      0.0000000
     -0.1637954	     -0.0020582	      0.0000000
     -0.1649139	     -0.0030842	      0.0000000
     -0.1650611	     -0.0041890	      0.0000000
     -0.1641762	     -0.0053627	      0.0000000
     -0.1622074	     -0.0065943	      0.0000000
     -0.1591139	     -0.0078709	      0.0000000
     -0.1548665	     -0.0091782	      0.0000000
     -0.1494492	     -0.0104996	      0.0000000
     -0.1428608	     -0.0118170	      0.0000000
     -0.1351160	     -0.0131106	      0.0000000
     -0.1262465	     -0.0143590	      0.0000000
     -0.1163017	     -0.0155400	      0.0000000
     -0.1053495	     -0.0166308	      0.0000000
     -0.0934763	     -0.0176089	      0.0000000
     -0.0807864	     -0.0184521	      0.0000000
     -0.0674016	     -0.0191398	      0.0000000
     -0.0534597	     -0.0196535	      0.0000000
     -0.0391124	     -0.0199772	      0.0000000
     -0.0245239	     -0.0200984	      0.0000000
     -0.0098672	     -0.0200086	      0.0000000
      0.0046784	     -0.0197038	      0.0000000
      0.0189310	     -0.0191854	      0.0000000
      0.0327107	     -0.0184596	      0.0000000
      0.0458436	     -0.0175372	      0.0000000
      0.0581655	     -0.0164346	      0.0000000
      0.0695259	     -0.0151725	      0.0000000
      0.0797918	     -0.0137750	      0.0000000
      0.0888502	     -0.0122702	      0.0000000
      0.0966108	     -0.0106879	      0.0000000
      0.1030087	     -0.0090597	      0.0000000
      0.1080035	     -0.0074171	      0.0000000
      0.1115827	     -0.0057912	      0.0000000
      0.1137570	     -0.0042113	      0.0000000
      0.1145643	     -0.0027044	      0.0000000
      0.1140610	     -0.0012937	      0.0000000
      0.1123283	      0.0000033	      0.0000000
      0.1094549	      0.0011785	      0.0000000
      0.1055489	      0.0022265	      0.0000000
      0.1007128	      0.0031441	      0.0000000
      0.0950674	      0.0039292	      0.0000000
      0.0887179	      0.0045838	      0.0000000
      0.0817931	      0.0051084	      0.0000000
      0.0743927	      0.0055066	      0.0000000
      0.0666561	      0.0057748	      0.0000000
      0.0586755	      0.0059137	      0.0000000
      0.0506142	      0.0059055	      0.0000000
      0.0425618	      0.0057440	      0.0000000
      0.0347288	      0.0053855	      0.0000000
      0.0272102	      0.0048233	      0.0000000
      0.0202858	      0.0039790	      0.0000000
      0.0140498	      0.0029019	      0.0000000
      0.0088290	      0.0015123	      0.0000000
      0.0046532	      0.0001801	      0.0000000
      0.0017550	     -0.0009309	      0.0000000
      0.0000000	      0.0000000	      0.0000000
      0.0000000	      0.0000000	      0.0000000
     -0.0020968	     -0.0041840	      0.0000000
     -0.0023935	     -0.0064312	      0.0000000
     -0.0017984	     -0.0075228	      0.0000000
     -0.0012936	     -0.0077177	      0.0000000
     -0.0006249	     -0.0074449	      0.0000000
     -0.0003626	     -0.0068424	      0.0000000
     -0.0003380	     -0.0061005	      0.0000000
     -0.0008256	     -0.0052787	      0.0000000
     -0.0017005	     -0.0044546	      0.0000000
     -0.0030786	     -0.0036467	      0.0000000
     -0.0048689	     -0.0028803	      0.0000000
     -0.0071138	     -0.0021534	      0.0000000
     -0.0097518	     -0.0014680	      0.0000000
     -0.0127974	     -0.0008139	      0.0000000
     -0.0162140	     -0.0001847	      0.0000000
     -0.0200088	      0.0004302	      0.0000000
     -0.0241643	      0.0010380	      0.0000000
     -0.0286878	      0.0016463	      0.0000000
     -0.0335740	      0.0022593	      0.0000000
     -0.0388310	      0.0028807	      0.0000000
     -0.0444593	      0.0035109	      0.0000000
     -0.0504652	      0.0041494	      0.0000000
     -0.0568493	      0.0047931	      0.0000000
     -0.0636130	      0.0054379	      0.0000000
     -0.0707522	      0.0060781	      0.0000000
     -0.0782607	      0.0067070	      0.0000000
     -0.0861265	      0.0073167	      0.0000000
     -0.0943330	      0.0078984	      0.0000000
     -0.1028574	      0.0084425	      0.0000000
     -0.1116712	      0.0089386	      0.0000000
     -0.1207386	      0.0093756	      0.0000000
     -0.1300175	      0.0097418	      0.0000000
     -0.1394581	      0.0100249	      0.0000000
     -0.1490033	      0.0102123	      0.0000000
     -0.1585887	      0.0102910	      0.0000000
     -0.1681421	      0.0102480	      0.0000000
     -0.1775842	      0.0100701	      0.0000000
     -0.1868286	      0.0097446	      0.0000000
     -0.1957823	      0.0092595	      0.0000000
     -0.2043464	      0.0086033	      0.0000000
     -0.2124168	      0.0077662	      0.0000000
     -0.2198853	      0.0067398	      0.0000000
     -0.2266410	      0.0055177	      0.0000000
     -0.2325711	      0.0040963	      0.0000000
     -0.2375634	      0.0024751	      0.0000000
     -0.2415076	      0.0006575	      0.0000000
     -0.2442978	     -0.0013488	      0.0000000
     -0.2458347	     -0.0035302	      0.0000000
     -0.2460288	     -0.0058679	      0.0000000
     -0.2448036	     -0.0083407	      0.0000000
     -0.2420951	     -0.0109255	      0.0000000
     -0.2378534	     -0.0135957	      0.0000000
     -0.2320442	     -0.0163217	      0.0000000
     -0.2246506	     -0.0190702	      0.0000000
     -0.2156742	     -0.0218047	      0.0000000
     -0.2051370	     -0.0244858	      0.0000000
     -0.1930825	     -0.0270715	      0.0000000
     -0.1795764	     -0.0295181	      0.0000000
     -0.1647072	     -0.0317811	      0.0000000
     -0.1485866	     -0.0338165	      0.0000000
     -0.1313484	     -0.0355813	      0.0000000
     -0.1131483	     -0.0370353	      0.0000000
     -0.0941621	     -0.0381419	      0.0000000
     -0.0745834	     -0.0388697	      0.0000000
     -0.0546217	     -0.0391935	      0.0000000
     -0.0344990	     -0.0390952	      0.0000000
     -0.0144460	     -0.0385655	      0.0000000
      0.0053016	     -0.0376042	      0.0000000
      0.0245076	     -0.0362216	      0.0000000
      0.0429412	     -0.0344380	      0.0000000
      0.0603817	     -0.0322820	      0.0000000
      0.0766252	     -0.0297927	      0.0000000
      0.0914859	     -0.0270158	      0.0000000
      0.1048028	     -0.0240041	      0.0000000
      0.1164419	     -0.0208156	      0.0000000
      0.1263001	     -0.0175114	      0.0000000
      0.1343054	     -0.0141539	      0.0000000
      0.1404206	     -0.0108049	      0.0000000
      0.1446397	     -0.0075240	      0.0000000
      0.1469914	     -0.0043664	      0.0000000
      0.1475315	     -0.0013811	      0.0000000
      0.1463472	      0.0013920	      0.0000000
      0.1435472	      0.0039273	      0.0000000
      0.1392648	      0.0062088	      0.0000000
      0.1336327	      0.0082262	      0.0000000
      0.1268070	      0.0099726	      0.0000000
      0.1189304	      0.0114473	      0.0000000
      0.1101742	      0.0126488	      0.0000000
      0.1006808	      0.0135792	      0.0000000
      0.0906377	      0.0142311	      0.0000000
      0.0801831	      0.0146005	      0.0000000
      0.0695340	      0.0146588	      0.0000000
      0.0588259	      0.0143884	      0.0000000
      0.0483313	      0.0137239	      0.0000000
      0.0381844	      0.0126450	      0.0000000
      0.0287422	      0.0110476	      0.0000000
      0.0201170	      0.0089886	      0.0000000
      0.0127628	      0.0063866	      0.0000000
      0.0066951	      0.0036679	      0.0000000
      0.0024872	      0.0010115	      0.0000000
      0.0000000	      0.0000000	      0.0000000
      0.0000000	      0.0000000	      0.0000000
     -0.0020812	     -0.0050979	      0.0000000
     -0.0025478	     -0.0079402	      0.0000000
     -0.0023294	     -0.0093199	      0.0000000
     -0.0022976	     -0.0095340	      0.0000000
     -0.0022175	     -0.0090763	      0.0000000
     -0.0026101	     -0.0081363	      0.0000000
     -0.0033281	     -0.0069695	      0.0000000
     -0.0046322	     -0.0056693	      0.0000000
     -0.0064106	     -0.0043510	      0.0000000
     -0.0087757	     -0.0030471	      0.0000000
     -0.0116422	     -0.0017985	      0.0000000
     -0.0150510	     -0.0006049	      0.0000000
     -0.0189431	      0.0005291	      0.0000000
     -0.0233314	      0.0016173	      0.0000000
     -0.0281806	      0.0026686	      0.0000000
     -0.0334974	      0.0036987	      0.0000000
     -0.0392655	      0.0047180	      0.0000000
     -0.0454926	      0.0057382	      0.0000000
     -0.0521747	      0.0067656	      0.0000000
     -0.0593205	      0.0078052	      0.0000000
     -0.0669312	      0.0088577	      0.0000000
     -0.0750132	      0.0099213	      0.0000000
     -0.0835666	      0.0109909	      0.0000000
     -0.0925913	      0.0120592	      0.0000000
     -0.1020812	      0.0131165	      0.0000000
     -0.1120262	      0.0141511	      0.0000000
     -0.1224092	      0.0151494	      0.0000000
     -0.1332070	      0.0160965	      0.0000000
     -0.1443888	      0.0169758	      0.0000000
     -0.1559156	      0.0177697	      0.0000000
     -0.1677403	      0.0184593	      0.0000000
     -0.1798067	      0.0190250	      0.0000000
     -0.1920498	      0.0194463	      0.0000000
     -0.2043953	      0.0197023	      0.0000000
     -0.2167598	      0.0197717	      0.0000000
     -0.2290512	      0.0196332	      0.0000000
     -0.2411685	      0.0192661	      0.0000000
     -0.2530028	      0.0186504	      0.0000000
     -0.2644381	      0.0177673	      0.0000000
     -0.2753518	      0.0165998	      0.0000000
     -0.2856161	      0.0151333	      0.0000000
     -0.2950996	      0.0133561	      0.0000000
     -0.3036684	      0.0112602	      0.0000000
     -0.3111882	      0.0088418	      0.0000000
     -0.3175262	      0.0061022	      0.0000000
     -0.3225534	      0.0030489	      0.0000000
     -0.3261463	     -0.0003039	      0.0000000
     -0.3281911	     -0.0039335	      0.0000000
     -0.3285834	     -0.0078084	      0.0000000
     -0.3272364	     -0.0118931	      0.0000000
     -0.3240782	     -0.0161498	      0.0000000
     -0.3190530	     -0.0205356	      0.0000000
     -0.3121236	     -0.0250032	      0.0000000
     -0.3032720	     -0.0294998	      0.0000000
     -0.2925018	     -0.0339682	      0.0000000
     -0.2798394	     -0.0383464	      0.0000000
     -0.2653351	     -0.0425693	      0.0000000
     -0.2490644	     -0.0465690	      0.0000000
     -0.2311281	     -0.0502769	      0.0000000
     -0.2116527	     -0.0536247	      0.0000000
     -0.1907901	     -0.0565461	      0.0000000
     -0.1687162	     -0.0589786	      0.0000000
     -0.1456301	     -0.0608652	      0.0000000
     -0.1217520	     -0.0621563	      0.0000000
     -0.0973203	     -0.0628111	      0.0000000
     -0.0725890	     -0.0627997	      0.0000000
     -0.0478241	     -0.0621045	      0.0000000
     -0.0232991	     -0.0607217	      0.0000000
      0.0007096	     -0.0586623	      0.0000000
      0.0239259	     -0.0559529	      0.0000000
      0.0460841	     -0.0526370	      0.0000000
      0.0669317	     -0.0487705	      0.0000000
      0.0862376	     -0.0444208	      0.0000000
      0.1037944	     -0.0396682	      0.0000000
      0.1194241	     -0.0346006	      0.0000000
      0.1329823	     -0.0293120	      0.0000000
      0.1443599	     -0.0239000	      0.0000000
      0.1534868	     -0.0184623	      0.0000000
      0.1603297	     -0.0130939	      0.0000000
      0.1648964	     -0.0078846	      0.0000000
      0.1672282	     -0.0029152	      0.0000000
      0.1674055	      0.0017421	      0.0000000
      0.1655382	      0.0060352	      0.0000000
      0.1617745	      0.0099321	      0.0000000
      0.1562646	      0.0134097	      0.0000000
      0.1491884	      0.0164519	      0.0000000
      0.1407166	      0.0190512	      0.0000000
      0.1310529	      0.0212006	      0.0000000
      0.1203746	      0.0228979	      0.0000000
      0.1089090	      0.0241300	      0.0000000
      0.0968316	      0.0248865	      0.0000000
      0.0844057	      0.0251278	      0.0000000
      0.0718019	      0.0248245	      0.0000000
      0.0593454	      0.0238921	      0.0000000
      0.0471949	      0.0222946	      0.0000000
      0.0357769	      0.0199042	      0.0000000
      0.0252100	      0.0167658	      0.0000000
      0.0160799	      0.0127781	      0.0000000
      0.0084009	      0.0083452	      0.0000000
      0.0030765	      0.0036082	      0.0000000
      0.0000000	      0.0000000	      0.0000000
      0.0000000	      0.0000000	      0.0000000
     -0.0021419	     -0.0057147	      0.0000000
     -0.0028663	     -0.0089622	      0.0000000
     -0.0031254	     -0.0104772	      0.0000000
     -0.0037190	     -0.0105931	      0.0000000
     -0.0044117	     -0.0098479	      0.0000000
     -0.0056728	     -0.0084801	      0.0000000
     -0.0073583	     -0.0068002	      0.0000000
     -0.0097047	     -0.0049350	      0.0000000
     -0.0126053	     -0.0030350	      0.0000000
     -0.0161622	     -0.0011474	      0.0000000
     -0.0202947	      0.0006720	      0.0000000
     -0.0250393	      0.0024211	      0.0000000
     -0.0303399	      0.0040922	      0.0000000
     -0.0362085	      0.0057031	      0.0000000
     -0.0426125	      0.0072655	      0.0000000
     -0.0495594	      0.0088008	      0.0000000
     -0.0570356	      0.0103230	      0.0000000
     -0.0650503	      0.0118477	      0.0000000
     -0.0736018	      0.0133834	      0.0000000
     -0.0826999	      0.0149363	      0.0000000
     -0.0923475	      0.0165066	      0.0000000
     -0.1025512	      0.0180909	      0.0000000
     -0.1133111	      0.0196811	      0.0000000
     -0.1246259	      0.0212658	      0.0000000
     -0.1364871	      0.0228298	      0.0000000
     -0.1488812	      0.0243553	      0.0000000
     -0.1617861	      0.0258214	      0.0000000
     -0.1751723	      0.0272052	      0.0000000
     -0.1890006	      0.0284816	      0.0000000
     -0.2032228	      0.0296238	      0.0000000
     -0.2177799	      0.0306035	      0.0000000
     -0.2326031	      0.0313911	      0.0000000
     -0.2476125	      0.0319562	      0.0000000
     -0.2627182	      0.0322679	      0.0000000
     -0.2778193	      0.0322951	      0.0000000
     -0.2928053	      0.0320073	      0.0000000
     -0.3075562	      0.0313748	      0.0000000
     -0.3219434	      0.0303696	      0.0000000
     -0.3358306	      0.0289658	      0.0000000
     -0.3490753	      0.0271406	      0.0000000
     -0.3615303	      0.0248751	      0.0000000
     -0.3730449	      0.0221547	      0.0000000
     -0.3834672	      0.0189705	      0.0000000
     -0.3926459	      0.0153197	      0.0000000
     -0.4004328	      0.0112073	      0.0000000
     -0.4066845	      0.0066459	      0.0000000
     -0.4112649	      0.0016585	      0.0000000
     -0.4140488	     -0.0037224	      0.0000000
     -0.4149210	     -0.0094504	      0.0000000
     -0.4137855	     -0.0154724	      0.0000000
     -0.4105633	     -0.0217337	      0.0000000
     -0.4051928	     -0.0281730	      0.0000000
     -0.3976324	     -0.0347230	      0.0000000
     -0.3878609	     -0.0413095	      0.0000000
     -0.3758802	     -0.0478515	      0.0000000
     -0.3617163	     -0.0542628	      0.0000000
     -0.3454207	     -0.0604522	      0.0000000
     -0.3270716	     -0.0663254	      0.0000000
     -0.3067744	     -0.0717869	      0.0000000
     -0.2846618	     -0.0767416	      0.0000000
     -0.2608939	     -0.0810969	      0.0000000
     -0.2356573	     -0.0847654	      0.0000000
     -0.2091639	     -0.0876665	      0.0000000
     -0.1816493	     -0.0897292	      0.0000000
     -0.1533703	     -0.0908944	      0.0000000
     -0.1246025	     -0.0911171	      0.0000000
     -0.0956364	     -0.0903680	      0.0000000
     -0.0667734	     -0.0886364	      0.0000000
     -0.0383224	     -0.0859310	      0.0000000
     -0.0105927	     -0.0822825	      0.0000000
      0.0161081	     -0.0777424	      0.0000000
      0.0414851	     -0.0723857	      0.0000000
      0.0652597	     -0.0663031	      0.0000000
      0.0871784	     -0.0596002	      0.0000000
      0.1070188	     -0.0523984	      0.0000000
      0.1245911	     -0.0448278	      0.0000000
      0.1397433	     -0.0370252	      0.0000000
      0.1523666	     -0.0291286	      0.0000000
      0.1623925	     -0.0212748	      0.0000000
      0.1697996	     -0.0135945	      0.0000000
      0.1746044	     -0.0062083	      0.0000000
      0.1768728	      0.0007735	      0.0000000
      0.1766994	      0.0072598	      0.0000000
      0.1742388	      0.0131920	      0.0000000
      0.1696502	      0.0185308	      0.0000000
      0.1631291	      0.0232449	      0.0000000
      0.1548660	      0.0273157	      0.0000000
      0.1450899	      0.0307268	      0.0000000
      0.1340052	      0.0334682	      0.0000000
      0.1218723	      0.0355191	      0.0000000
      0.1088977	      0.0368598	      0.0000000
      0.0953838	      0.0374400	      0.0000000
      0.0815307	      0.0372156	      0.0000000
      0.0677102	      0.0360860	      0.0000000
      0.0541037	      0.0339924	      0.0000000
      0.0412028	      0.0307876	      0.0000000
      0.0291399	      0.0264798	      0.0000000
      0.0186255	      0.0209436	      0.0000000
      0.0096881	      0.0144847	      0.0000000
      0.0035068	      0.0071648	      0.0000000
      0.0000000	      0.0000000	      0.0000000
      0.0000000	      0.0000000	      0.0000000
     -0.0022499	     -0.0062701	      0.0000000
     -0.0033057	     -0.0096945	      0.0000000
     -0.0041494	     -0.0111371	      0.0000000
     -0.0055068	     -0.0109752	      0.0000000
     -0.0071392	     -0.0098056	      0.0000000
     -0.0094525	     -0.0079031	      0.0000000
     -0.0122992	     -0.0056253	      0.0000000