# vtk DataFile Version 2.0
vw
ASCII
DATASET STRUCTURED_POINTS
DIMENSIONS  102  102    1
ORIGIN      0.0000000      0.0000000      0.0000000
SPACING      0.0100000      0.0100000      0.0100000
POINT_DATA  10404
VECTORS velocity float
      0.0000000	      0.0000000	      0.0000000
      0.0000000	      0.0000000	      0.0000000
      0.0000000	      0.0000000	      0.0000000
      0.0000000	      0.0000000	      0.0000000
      0.0000000	      0.0000000	      0.0000000
      0.0000000	      0.0000000	      0.0000000
      0.0000000	      0.0000000	      0.0000000
      0.0000000	      0.0000000	      0.0000000
      0.0000000	      0.0000000	      0.0000000
      0.0000000	      0.0000000	      0.0000000
      0.0000000	      0.0000000	      0.0000000
      0.0000000	      0.0000000	      0.0000000
      0.0000000	      0.0000000	      0.0000000
      0.0000000	      0.0000000	      0.0000000
      0.0000000	      0.0000000	      0.0000000
      0.0000000	      0.0000000	      0.0000000
      0.0000000	      0.0000000	      0.0000000
      0.0000000	      0.0000000	      0.0000000
      0.0000000	      0.0000000	      0.0000000
      0.0000000	      0.0000000	      0.0000000
      0.0000000	      0.0000000	      0.0000000
      0.0000000	      0.0000000	      0.0000000
      0.0000000	      0.0000000	      0.0000000
      0.0000000	      0.0000000	      0.0000000
      0.0000000	      0.0000000	      0.0000000
      0.0000000	      0.0000000	      0.0000000
      0.0000000	      0.0000000	      0.0000000
      0.0000000	      0.0000000	      0.0000000
      0.0000000	      0.0000000	      0.0000000
      0.0000000	      0.0000000	      0.0000000
      0.0000000	      0.0000000	      0.0000000
      0.0000000	      0.0000000	      0.0000000
      0.0000000	      0.0000000	      0.0000000
      0.0000000	      0.0000000	      0.0000000
      0.0000000	      0.0000000	      0.0000000
      0.0000000	      0.0000000	      0.0000000
      0.0000000	      0.0000000	      0.0000000
      0.0000000	      0.0000000	      0.0000000
      0.0000000	      0.0000000	      0.0000000
      0.0000000	      0.0000000	      0.0000000
      0.0000000	      0.0000000	      0.0000000
      0.0000000	      0.0000000	      0.0000000
      0.0000000	      0.0000000	      0.0000000
      0.0000000	      0.0000000	      0.0000000
      0.0000000	      0.0000000	      0.0000000
      0.0000000	      0.0000000	      0.0000000
      0.0000000	      0.0000000	      0.0000000
      0.0000000	      0.0000000	      0.0000000
      0.0000000	      0.0000000	      0.0000000
      0.0000000	      0.0000000	      0.0000000
      0.0000000	      0.0000000	      0.0000000
      0.0000000	      0.0000000	      0.0000000
      0.0000000	      0.0000000	      0.0000000
      0.0000000	      0.0000000	      0.0000000
      0.0000000	      0.0000000	      0.0000000
      0.0000000	      0.0000000	      0.0000000
      0.0000000	      0.0000000	      0.0000000
      0.0000000	      0.0000000	      0.0000000
      0.0000000	      0.0000000	      0.0000000
      0.0000000	      0.0000000	      0.0000000
      0.0000000	      0.0000000	      0.0000000
      0.0000000	      0.0000000	      0.0000000
      0.0000000	      0.0000000	      0.0000000
      0.0000000	      0.0000000	      0.0000000
      0.0000000	      0.0000000	      0.0000000
      0.0000000	      0.0000000	      0.0000000
      0.0000000	      0.0000000	      0.0000000
      0.0000000	      0.0000000	      0.0000000
      0.0000000	      0.0000000	      0.0000000
      0.0000000	      0.0000000	      0.0000000
      0.0000000	      0.0000000	      0.0000000
      0.0000000	      0.0000000	      0.0000000
      0.0000000	      0.0000000	      0.0000000
      0.0000000	      0.0000000	      0.0000000
      0.0000000	      0.0000000	      0.0000000
      0.0000000	      0.0000000	      0.0000000
      0.0000000	      0.0000000	      0.0000000
      0.0000000	      0.0000000	      0.0000000
      0.0000000	      0.0000000	      0.0000000
      0.0000000	      0.0000000	      0.0000000
      0.0000000	      0.0000000	      0.0000000
      0.0000000	      0.0000000	      0.0000000
      0.0000000	      0.0000000	      0.0000000
      0.0000000	      0.0000000	      0.0000000
      0.0000000	      0.0000000	      0.0000000
      0.0000000	      0.0000000	      0.0000000
      0.0000000	      0.0000000	      0.0000000
      0.0000000	      0.0000000	      0.0000000
      0.0000000	      0.0000000	      0.0000000
      0.0000000	      0.0000000	      0.0000000
      0.0000000	      0.0000000	      0.0000000
      0.0000000	      0.0000000	      0.0000000
      0.0000000	      0.0000000	      0.0000000
      0.0000000	      0.0000000	      0.0000000
      0.0000000	      0.0000000	      0.0000000
      0.0000000	      0.0000000	      0.0000000
      0.0000000	      0.0000000	      0.0000000
      0.0000000	      0.0000000	      0.0000000
      0.0000000	      0.0000000	      0.0000000
      0.0000000	      0.0000000	      0.0000000
      0.0000000	      0.0000000	      0.0000000
      0.0000000	      0.0000000	      0.0000000
      0.0000000	      0.0000000	      0.0000000
     -0.0121576	     -0.0151249	      0.0000000
     -0.0110680	     -0.0214611	      0.0000000
     -0.0010412	     -0.0247215	      0.0000000
      0.0102012	     -0.0260909	      0.0000000
      0.0235315	     -0.0262023	      0.0000000
      0.0361262	     -0.0254632	      0.0000000
      0.0476198	     -0.0241247	      0.0000000
      0.0569695	     -0.0224544	      0.0000000
      0.0639757	     -0.0206524	      0.0000000
      0.0684452	     -0.0188914	      0.0000000
      0.0705197	     -0.0172832	      0.0000000
      0.0704064	     -0.0158919	      0.0000000
      0.0684092	     -0.0147317	      0.0000000
      0.0648210	     -0.0137816	      0.0000000
      0.0599026	     -0.0129949	      0.0000000
      0.0538488	     -0.0123154	      0.0000000
      0.0467863	     -0.0116853	      0.0000000
      0.0387688	     -0.0110563	      0.0000000
      0.0297938	     -0.0103940	      0.0000000
      0.0198174	     -0.0096780	      0.0000000
      0.0087741	     -0.0088989	      0.0000000
     -0.0034126	     -0.0080498	      0.0000000
     -0.0168162	     -0.0071321	      0.0000000
     -0.0314926	     -0.0061586	      0.0000000
     -0.0474822	     -0.0051411	      0.0000000
     -0.0648069	     -0.0040922	      0.0000000
     -0.0834693	     -0.0030240	      0.0000000
     -0.1034540	     -0.0019490	      0.0000000
     -0.1247236	     -0.0008782	      0.0000000
     -0.1472263	      0.0001757	      0.0000000
     -0.1708822	      0.0011921	      0.0000000
     -0.1955940	      0.0021551	      0.0000000
     -0.2212462	      0.0030515	      0.0000000
     -0.2477063	      0.0038677	      0.0000000
     -0.2748250	      0.0045899	      0.0000000
     -0.3024376	      0.0052041	      0.0000000
     -0.3303648	      0.0056967	      0.0000000
     -0.3584141	      0.0060546	      0.0000000
     -0.3863813	      0.0062652	      0.0000000
     -0.4140523	      0.0063172	      0.0000000
     -0.4412044	      0.0062000	      0.0000000
     -0.4676086	      0.0059044	      0.0000000
     -0.4930308	      0.0054225	      0.0000000
     -0.5172343	      0.0047477	      0.0000000
     -0.5399806	      0.0038752	      0.0000000
     -0.5610328	      0.0028014	      0.0000000
     -0.5801545	      0.0015255	      0.0000000
     -0.5971194	      0.0000488	      0.0000000
     -0.6116965	     -0.0016166	      0.0000000
     -0.6236807	     -0.0034549	      0.0000000
     -0.6328669	     -0.0054934	      0.0000000
     -0.6390267	     -0.0077711	      0.0000000
     -0.6419249	     -0.0102717	      0.0000000
     -0.6413679	     -0.0129595	      0.0000000
     -0.6372015	     -0.0158026	      0.0000000
     -0.6293058	     -0.0187692	      0.0000000
     -0.6175980	     -0.0218268	      0.0000000
     -0.6020323	     -0.0249405	      0.0000000
     -0.5826030	     -0.0280724	      0.0000000
     -0.5593477	     -0.0311806	      0.0000000
     -0.5323509	     -0.0342199	      0.0000000
     -0.5017471	     -0.0371413	      0.0000000
     -0.4677248	     -0.0398931	      0.0000000
     -0.4305288	     -0.0424211	      0.0000000
     -0.3904629	     -0.0446699	      0.0000000
     -0.3478912	     -0.0465841	      0.0000000
     -0.3032381	     -0.0481095	      0.0000000
     -0.2569868	     -0.0491957	      0.0000000
     -0.2096766	     -0.0497971	      0.0000000
     -0.1618970	     -0.0498763	      0.0000000
     -0.1142802	     -0.0494058	      0.0000000
     -0.0674906	     -0.0483719	      0.0000000
     -0.0222094	     -0.0467765	      0.0000000
      0.0208814	     -0.0446474	      0.0000000
      0.0611207	     -0.0420337	      0.0000000
      0.0979078	     -0.0389799	      0.0000000
      0.1306976	     -0.0355576	      0.0000000
      0.1590319	     -0.0318591	      0.0000000
      0.1825594	     -0.0279853	      0.0000000
      0.2010508	     -0.0240497	      0.0000000
      0.2144135	     -0.0201680	      0.0000000
      0.2226982	     -0.0164525	      0.0000000
      0.2260955	     -0.0130083	      0.0000000
      0.2249350	     -0.0099287	      0.0000000
      0.2196637	     -0.0072861	      0.0000000
      0.2108382	     -0.0051338	      0.0000000
      0.1990635	     -0.0034483	      0.0000000
      0.1849229	     -0.0021729	      0.0000000
      0.1689774	     -0.0012874	      0.0000000
      0.1517749	     -0.0007581	      0.0000000
      0.1338141	     -0.0005448	      0.0000000
      0.1155549	     -0.0006072	      0.0000000
      0.0974007	     -0.0009133	      0.0000000
      0.0797418	     -0.0014564	      0.0000000
      0.0629345	     -0.0022509	      0.0000000
      0.0474103	     -0.0033643	      0.0000000
      0.0335814	     -0.0048163	      0.0000000
      0.0219629	     -0.0066421	      0.0000000
      0.0129256	     -0.0081804	      0.0000000
      0.0059139	     -0.0083283	      0.0000000
      0.0000000	      0.0000000	      0.0000000
      0.0000000	      0.0000000	      0.0000000
     -0.0122726	     -0.0247953	      0.0000000
     -0.0092213	     -0.0393197	      0.0000000
      0.0047363	     -0.0480049	      0.0000000
      0.0215637	     -0.0522392	      0.0000000
      0.0414040	     -0.0530700	      0.0000000
      0.0604856	     -0.0513786	      0.0000000
      0.0778631	     -0.0478887	      0.0000000
      0.0919557	     -0.0433089	      0.0000000
      0.1022712	     -0.0382248	      0.0000000
      0.1084293	     -0.0331201	      0.0000000
      0.1105232	     -0.0283308	      0.0000000
      0.1087872	     -0.0240571	      0.0000000
      0.1036106	     -0.0203679	      0.0000000
      0.0953938	     -0.0172309	      0.0000000
      0.0845066	     -0.0145400	      0.0000000
      0.0712389	     -0.0121650	      0.0000000
      0.0557858	     -0.0099607	      0.0000000
      0.0382480	     -0.0077963	      0.0000000
      0.0186439	     -0.0055731	      0.0000000
     -0.0030655	     -0.0032246	      0.0000000
     -0.0269552	     -0.0007202	      0.0000000
     -0.0531129	      0.0019501	      0.0000000
     -0.0815965	      0.0047625	      0.0000000
     -0.1124500	      0.0076847	      0.0000000
     -0.1456869	      0.0106810	      0.0000000
     -0.1812879	      0.0137125	      0.0000000
     -0.2191976	      0.0167393	      0.0000000
     -0.2593243	      0.0197201	      0.0000000
     -0.3015395	      0.0226142	      0.0000000
     -0.3456778	      0.0253764	      0.0000000
     -0.3915406	      0.0279599	      0.0000000
     -0.4388992	      0.0303231	      0.0000000
     -0.4874941	      0.0324268	      0.0000000
     -0.5370381	      0.0342329	      0.0000000
     -0.5872188	      0.0357044	      0.0000000
     -0.6377024	      0.0368064	      0.0000000
     -0.6881362	      0.0375063	      0.0000000
     -0.7381527	      0.0377742	      0.0000000
     -0.7873726	      0.0375835	      0.0000000
     -0.8354085	      0.0369115	      0.0000000
     -0.8818682	      0.0357387	      0.0000000
     -0.9263584	      0.0340501	      0.0000000
     -0.9684871	      0.0318345	      0.0000000
     -1.0078679	      0.0290850	      0.0000000
     -1.0441214	      0.0257989	      0.0000000
     -1.0768795	      0.0219778	      0.0000000
     -1.1057857	      0.0176281	      0.0000000
     -1.1305012	      0.0127603	      0.0000000
     -1.1506953	      0.0073937	      0.0000000
     -1.1660615	      0.0015510	      0.0000000
     -1.1762685	     -0.0047817	      0.0000000
     -1.1810478	     -0.0116360	      0.0000000
     -1.1801650	     -0.0189704	      0.0000000
     -1.1734307	     -0.0266961	      0.0000000
     -1.1607117	     -0.0347334	      0.0000000
     -1.1419206	     -0.0430010	      0.0000000
     -1.1170225	     -0.0514154	      0.0000000
     -1.0860344	     -0.0598882	      0.0000000
     -1.0490289	     -0.0683243	      0.0000000
     -1.0061371	     -0.0766214	      0.0000000
     -0.9575517	     -0.0846699	      0.0000000
     -0.9035306	     -0.0923530	      0.0000000
     -0.8444000	     -0.0995480	      0.0000000
     -0.7805576	     -0.1061274	      0.0000000
     -0.7124747	     -0.1119611	      0.0000000
     -0.6406980	     -0.1169185	      0.0000000
     -0.5658500	     -0.1208720	      0.0000000
     -0.4886282	     -0.1237004	      0.0000000
     -0.4098023	     -0.1252931	      0.0000000
     -0.3302092	     -0.1255555	      0.0000000
     -0.2507461	     -0.1244138	      0.0000000
     -0.1723593	     -0.1218217	      0.0000000
     -0.0960339	     -0.1177675	      0.0000000
     -0.0227648	     -0.1122827	      0.0000000
      0.0464304	     -0.1054558	      0.0000000
      0.1105999	     -0.0974214	      0.0000000
      0.1688738	     -0.0883347	      0.0000000
      0.2204802	     -0.0784047	      0.0000000
      0.2647741	     -0.0678770	      0.0000000
      0.3012628	     -0.0570255	      0.0000000
      0.3296388	     -0.0461462	      0.0000000
      0.3497944	     -0.0355357	      0.0000000
      0.3618291	     -0.0254837	      0.0000000
      0.3660604	     -0.0162579	      0.0000000
      0.3629988	     -0.0080884	      0.0000000
      0.3533646	     -0.0011420	      0.0000000
      0.3379830	      0.0045576	      0.0000000
      0.3178122	      0.0090575	      0.0000000
      0.2937797	      0.0123892	      0.0000000
      0.2668225	      0.0146246	      0.0000000
      0.2378249	      0.0158564	      0.0000000
      0.2076279	      0.0161823	      0.0000000
      0.1769991	      0.0156858	      0.0000000
      0.1466826	      0.0144026	      0.0000000
      0.1173507	      0.0123247	      0.0000000
      0.0897579	      0.0093547	      0.0000000
      0.0645278	      0.0054803	      0.0000000
      0.0425383	      0.0006879	      0.0000000
      0.0241128	     -0.0039675	      0.0000000
      0.0101450	     -0.0069936	      0.0000000
      0.0000000	      0.0000000	      0.0000000
      0.0000000	      0.0000000	      0.0000000
     -0.0108548	     -0.0336418	      0.0000000
     -0.0058157	     -0.0579434	      0.0000000
      0.0106836	     -0.0735191	      0.0000000
      0.0304417	     -0.0815580	      0.0000000
      0.0532879	     -0.0833693	      0.0000000
      0.0750851	     -0.0803521	      0.0000000
      0.0945806	     -0.0738459	      0.0000000
      0.1099320	     -0.0651291	      0.0000000
      0.1204649	     -0.0553084	      0.0000000
      0.1256720	     -0.0452855	      0.0000000
      0.1255755	     -0.0357088	      0.0000000
      0.1203761	     -0.0269754	      0.0000000
      0.1104584	     -0.0192445	      0.0000000
      0.0962353	     -0.0124866	      0.0000000
      0.0780896	     -0.0065397	      0.0000000
      0.0563414	     -0.0011737	      0.0000000
      0.0311990	      0.0038591	      0.0000000
      0.0028160	      0.0087813	      0.0000000
     -0.0287664	      0.0137647	      0.0000000
     -0.0635339	      0.0189228	      0.0000000
     -0.1015164	      0.0243095	      0.0000000
     -0.1427396	      0.0299209	      0.0000000
     -0.1872115	      0.0357145	      0.0000000
     -0.2349097	      0.0416290	      0.0000000
     -0.2857680	      0.0475895	      0.0000000
     -0.3396727	      0.0535138	      0.0000000
     -0.3964603	      0.0593164	      0.0000000
     -0.4559177	      0.0649108	      0.0000000
     -0.5177840	      0.0702111	      0.0000000
     -0.5817528	      0.0751312	      0.0000000
     -0.6474787	      0.0795863	      0.0000000
     -0.7145800	      0.0834973	      0.0000000
     -0.7826418	      0.0867903	      0.0000000
     -0.8512210	      0.0893965	      0.0000000
     -0.9198519	      0.0912528	      0.0000000
     -0.9880512	      0.0923022	      0.0000000
     -1.0553236	      0.0924946	      0.0000000
     -1.1211674	      0.0917870	      0.0000000
     -1.1850790	      0.0901445	      0.0000000
     -1.2465581	      0.0875401	      0.0000000
     -1.3051121	      0.0839545	      0.0000000
     -1.3602603	      0.0793767	      0.0000000
     -1.4115370	      0.0738036	      0.0000000
     -1.4584956	      0.0672396	      0.0000000
     -1.5007103	      0.0596966	      0.0000000
     -1.5377794	      0.0511935	      0.0000000
     -1.5693255	      0.0417558	      0.0000000
     -1.5949995	      0.0314142	      0.0000000
     -1.6144723	      0.0202039	      0.0000000
     -1.6274511	      0.0081596	      0.0000000
     -1.6336474	     -0.0047142	      0.0000000
     -1.6327905	     -0.0183803	      0.0000000
     -1.6247983	     -0.0327152	      0.0000000
     -1.6095686	     -0.0475811	      0.0000000
     -1.5870667	     -0.0628440	      0.0000000
     -1.5572945	     -0.0783674	      0.0000000
     -1.5203035	     -0.0940099	      0.0000000
     -1.4761940	     -0.1096225	      0.0000000
     -1.4251185	     -0.1250465	      0.0000000
     -1.3672838	     -0.1401131	      0.0000000
     -1.3029544	     -0.1546430	      0.0000000
     -1.2324556	     -0.1684465	      0.0000000
     -1.1561764	     -0.1813252	      0.0000000
     -1.0745726	     -0.1930733	      0.0000000
     -0.9881703	     -0.2034802	      0.0000000
     -0.8975675	     -0.2123343	      0.0000000
     -0.8034365	     -0.2194269	      0.0000000
     -0.7065241	     -0.2245575	      0.0000000
     -0.6076511	     -0.2275399	      0.0000000
     -0.5077098	     -0.2282097	      0.0000000
     -0.4076596	     -0.2264316	      0.0000000
     -0.3085201	     -0.2221094	      0.0000000
     -0.2113609	     -0.2151959	      0.0000000
     -0.1172927	     -0.2057029	      0.0000000
     -0.0274357	     -0.1937272	      0.0000000
      0.0570479	     -0.1794507	      0.0000000
      0.1350849	     -0.1631526	      0.0000000
      0.2056894	     -0.1451582	      0.0000000
      0.2679887	     -0.1258472	      0.0000000
      0.3212484	     -0.1056830	      0.0000000
      0.3649120	     -0.0851702	      0.0000000
      0.3986313	     -0.0648330	      0.0000000
      0.4222802	     -0.0452026	      0.0000000
      0.4359799	     -0.0267898	      0.0000000
      0.4400925	     -0.0100558	      0.0000000
      0.4352265	      0.0046050	      0.0000000
      0.4222292	      0.0169881	      0.0000000
      0.4022255	      0.0270720	      0.0000000
      0.3763096	      0.0348750	      0.0000000
      0.3456484	      0.0404860	      0.0000000
      0.3113829	      0.0440418	      0.0000000
      0.2746346	      0.0456977	      0.0000000
      0.2364595	      0.0455962	      0.0000000
      0.1978951	      0.0438199	      0.0000000
      0.1598812	      0.0403878	      0.0000000
      0.1234569	      0.0352072	      0.0000000
      0.0894410	      0.0282707	      0.0000000
      0.0591202	      0.0195910	      0.0000000
      0.0329519	      0.0102327	      0.0000000
      0.0133143	      0.0016240	      0.0000000
      0.0000000	      0.0000000	      0.0000000
      0.0000000	      0.0000000	      0.0000000
     -0.0092977	     -0.0457314	      0.0000000
     -0.0026604	     -0.0796560	      0.0000000
      0.0152043	     -0.1017932	      0.0000000
      0.0358535	     -0.1132677	      0.0000000
      0.0590719	     -0.1156273	      0.0000000
      0.0806308	     -0.1107598	      0.0000000
      0.0992021	     -0.1005977	      0.0000000
      0.1128667	     -0.0870017	      0.0000000
      0.1208879	     -0.0716082	      0.0000000
      0.1226977	     -0.0557522	      0.0000000
      0.1182639	     -0.0404058	      0.0000000
      0.1077331	     -0.0261722	      0.0000000
      0.0914367	     -0.0133126	      0.0000000
      0.0697324	     -0.0018066	      0.0000000
      0.0429506	      0.0085636	      0.0000000
      0.0114474	      0.0180838	      0.0000000
     -0.0245432	      0.0270776	      0.0000000
     -0.0648408	      0.0358449	      0.0000000
     -0.1093401	      0.0446230	      0.0000000
     -0.1579766	      0.0535590	      0.0000000
     -0.2106983	      0.0627186	      0.0000000
     -0.2674390	      0.0720883	      0.0000000
     -0.3281032	      0.0815960	      0.0000000
     -0.3925499	      0.0911350	      0.0000000
     -0.4605838	      0.1005779	      0.0000000
     -0.5319526	      0.1097874	      0.0000000
     -0.6063465	      0.1186227	      0.0000000
     -0.6834014	      0.1269437	      0.0000000
     -0.7627023	      0.1346140	      0.0000000
     -0.8437890	      0.1415019	      0.0000000
     -0.9261636	      0.1474830	      0.0000000
     -1.0092965	      0.1524429	      0.0000000
     -1.0926327	      0.1562779	      0.0000000
     -1.1755990	      0.1588956	      0.0000000
     -1.2576113	      0.1602155	      0.0000000
     -1.3380817	      0.1601698	      0.0000000
     -1.4164256	      0.1587036	      0.0000000
     -1.4920674	      0.1557754	      0.0000000
     -1.5644471	      0.1513569	      0.0000000
     -1.6330246	      0.1454328	      0.0000000
     -1.6972842	      0.1380004	      0.0000000
     -1.7567385	      0.1290692	      0.0000000
     -1.8109309	      0.1186595	      0.0000000
     -1.8594378	      0.1068027	      0.0000000
     -1.9018706	      0.0935392	      0.0000000
     -1.9378759	      0.0789182	      0.0000000
     -1.9671359	      0.0629967	      0.0000000
     -1.9893696	      0.0458365	      0.0000000
     -2.0043249	      0.0275046	      0.0000000
     -2.0118099	      0.0080684	      0.0000000
     -2.0116037	     -0.0124354	      0.0000000
     -2.0036240	     -0.0338636	      0.0000000
     -1.9878858	     -0.0560061	      0.0000000
     -1.9643960	     -0.0786990	      0.0000000
     -1.9332060	     -0.1017669	      0.0000000
     -1.8943940	     -0.1250316	      0.0000000
     -1.8480744	     -0.1483058	      0.0000000
     -1.7943982	     -0.1713918	      0.0000000
     -1.7335571	     -0.1940796	      0.0000000
     -1.6657853	     -0.2161460	      0.0000000
     -1.5913639	     -0.2373541	      0.0000000
     -1.5106237	     -0.2574537	      0.0000000
     -1.4239495	     -0.2761819	      0.0000000
     -1.3317837	     -0.2932658	      0.0000000
     -1.2346309	     -0.3084247	      0.0000000
     -1.1330606	     -0.3213744	      0.0000000
     -1.0277114	     -0.3318323	      0.0000000
     -0.9192925	     -0.3395236	      0.0000000
     -0.8085854	     -0.3441891	      0.0000000
     -0.6964440	     -0.3455937	      0.0000000
     -0.5837920	     -0.3435371	      0.0000000
     -0.4716194	     -0.3378646	      0.0000000
     -0.3609765	     -0.3284802	      0.0000000
     -0.2529629	     -0.3153619	      0.0000000
     -0.1487212	     -0.2985742	      0.0000000
     -0.0494116	     -0.2783087	      0.0000000
      0.0437652	     -0.2548727	      0.0000000
      0.1296599	     -0.2287145	      0.0000000
      0.2072416	     -0.2003534	      0.0000000
      0.2755768	     -0.1703743	      0.0000000
      0.3338966	     -0.1394784	      0.0000000
      0.3816088	     -0.1084014	      0.0000000
      0.4183265	     -0.0779100	      0.0000000
      0.4439140	     -0.0487677	      0.0000000
      0.4584722	     -0.0216916	      0.0000000
      0.4624096	      0.0026482	      0.0000000
      0.4563203	      0.0237328	      0.0000000
      0.4413373	      0.0413708	      0.0000000
      0.4185694	      0.0555252	      0.0000000
      0.3892659	      0.0662432	      0.0000000
      0.3547001	      0.0736638	      0.0000000
      0.3161677	      0.0779697	      0.0000000
      0.2749261	      0.0793459	      0.0000000
      0.2322383	      0.0779195	      0.0000000
      0.1892631	      0.0737398	      0.0000000
      0.1472925	      0.0667253	      0.0000000
      0.1073451	      0.0568282	      0.0000000
      0.0711211	      0.0439879	      0.0000000
      0.0393189	      0.0289574	      0.0000000
      0.0155458	      0.0127837	      0.0000000
      0.0000000	      0.0000000	      0.0000000
      0.0000000	      0.0000000	      0.0000000
     -0.0083535	     -0.0584628	      0.0000000
     -0.0009445	     -0.1018190	      0.0000000
      0.0171278	     -0.1300192	      0.0000000
      0.0370889	     -0.1442522	      0.0000000
      0.0587166	     -0.1464249	      0.0000000
      0.0777994	     -0.1389369	      0.0000000
      0.0930658	     -0.1243282	      0.0000000
      0.1026442	     -0.1050446	      0.0000000
      0.1058337	     -0.0832474	      0.0000000
      0.1020739	     -0.0606959	      0.0000000
      0.0913167	     -0.0386733	      0.0000000
      0.0736604	     -0.0179838	      0.0000000
      0.0493626	      0.0010289	      0.0000000
      0.0186886	      0.0183838	      0.0000000
     -0.0179573	      0.0342440	      0.0000000
     -0.0602625	      0.0489477	      0.0000000
     -0.1079482	      0.0629062	      0.0000000
     -0.1608185	      0.0764838	      0.0000000
     -0.2187111	      0.0899625	      0.0000000
     -0.2814791	      0.1035087	      0.0000000
     -0.3489620	      0.1171757	      0.0000000
     -0.4209647	      0.1309179	      0.0000000
     -0.4972461	      0.1446181	      0.0000000
     -0.5775097	      0.1581147	      0.0000000
     -0.6613993	      0.1712207	      0.0000000
     -0.7484993	      0.1837384	      0.0000000
     -0.8383376	      0.1954694	      0.0000000
     -0.9303914	      0.2062203	      0.0000000
     -1.0240941	      0.2158074	      0.0000000
     -1.1188434	      0.2240592	      0.0000000
     -1.2140110	      0.2308195	      0.0000000
     -1.3089506	      0.2359492	      0.0000000
     -1.4030072	      0.2393280	      0.0000000
     -1.4955255	      0.2408550	      0.0000000
     -1.5858584	      0.2404491	      0.0000000
     -1.6733749	      0.2380494	      0.0000000
     -1.7574667	      0.2336148	      0.0000000
     -1.8375547	      0.2271237	      0.0000000
     -1.9130936	      0.2185730	      0.0000000
     -1.9835758	      0.2079771	      0.0000000
     -2.0485347	      0.1953668	      0.0000000
     -2.1075461	      0.1807874	      0.0000000
     -2.1602298	      0.1642974	      0.0000000
     -2.2062492	      0.1459673	      0.0000000
     -2.2453113	      0.1258773	      0.0000000
     -2.2771656	      0.1041163	      0.0000000
     -2.3016026	      0.0807803	      0.0000000
     -2.3184528	      0.0559696	      0.0000000
     -2.3275801	      0.0297912	      0.0000000
     -2.3289195	      0.0023400	      0.0000000
     -2.3223246	     -0.0262711	      0.0000000
     -2.3079325	     -0.0557988	      0.0000000
     -2.2857790	     -0.0860084	      0.0000000
     -2.2559450	     -0.1167133	      0.0000000
     -2.2185212	     -0.1477125	      0.0000000
     -2.1736185	     -0.1787988	      0.0000000
     -2.1213689	     -0.2097523	      0.0000000
     -2.0619290	     -0.2403395	      0.0000000
     -1.9954834	     -0.2703113	      0.0000000
     -1.9222483	     -0.2994016	      0.0000000
     -1.8424757	     -0.3273264	      0.0000000
     -1.7564580	     -0.3537844	      0.0000000
     -1.6645329	     -0.3784573	      0.0000000
     -1.5670880	     -0.4010121	      0.0000000
     -1.4645664	     -0.4211040	      0.0000000
     -1.3574713	     -0.4383812	      0.0000000
     -1.2463705	     -0.4524901	      0.0000000
     -1.1319004	     -0.4630831	      0.0000000
     -1.0147685	     -0.4698273	      0.0000000
     -0.8957553	     -0.4724151	      0.0000000
     -0.7757144	     -0.4705760	      0.0000000
     -0.6555699	     -0.4640904	      0.0000000
     -0.5363127	     -0.4528049	      0.0000000
     -0.4189936	     -0.4366484	      0.0000000
     -0.3047145	     -0.4156527	      0.0000000
     -0.1946165	     -0.3899695	      0.0000000
     -0.0898832	     -0.3599077	      0.0000000
      0.0083099	     -0.3259375	      0.0000000
      0.0987060	     -0.2886578	      0.0000000
      0.1802931	     -0.2488506	      0.0000000
      0.2520861	     -0.2073460	      0.0000000
      0.3133005	     -0.1650564	      0.0000000
      0.3633150	     -0.1229777	      0.0000000
      0.4017419	     -0.0821172	      0.0000000
      0.4284158	     -0.0434606	      0.0000000
      0.4434939	     -0.0079410	      0.0000000
      0.4472852	      0.0235381	      0.0000000
      0.4406707	      0.0504782	      0.0000000
      0.4247141	      0.0727312	      0.0000000
      0.4006167	      0.0902487	      0.0000000
      0.3696792	      0.1031217	      0.0000000
      0.3332700	      0.1115188	      0.0000000
      0.2927619	      0.1156351	      0.0000000
      0.2495725	      0.1156209	      0.0000000
      0.2050320	      0.1115375	      0.0000000
      0.1606513	      0.1032975	      0.0000000
      0.1176534	      0.0907594	      0.0000000
      0.0781106	      0.0737020	      0.0000000
      0.0429905	      0.0523500	      0.0000000
      0.0167785	      0.0270940	      0.0000000
      0.0000000	      0.0000000	      0.0000000
      0.0000000	      0.0000000	      0.0000000
     -0.0079968	     -0.0720390	      0.0000000
     -0.0006900	     -0.1243010	      0.0000000
      0.0163763	     -0.1576164	      0.0000000
      0.0341571	     -0.1735167	      0.0000000
      0.0524448	     -0.1744536	      0.0000000
      0.0671212	     -0.1633974	      0.0000000
      0.0770535	     -0.1435087	      0.0000000