# vtk DataFile Version 2.0
vw
ASCII
DATASET STRUCTURED_POINTS
DIMENSIONS  102  102    1
ORIGIN      0.0000000      0.0000000      0.0000000
SPACING      0.0100000      0.0100000      0.0100000
POINT_DATA  10404
VECTORS velocity float
      0.0000000	      0.0000000	      0.0000000
      0.0000000	      0.0000000	      0.0000000
      0.0000000	      0.0000000	      0.0000000
      0.0000000	      0.0000000	      0.0000000
      0.0000000	      0.0000000	      0.0000000
      0.0000000	      0.0000000	      0.0000000
      0.0000000	      0.0000000	      0.0000000
      0.0000000	      0.0000000	      0.0000000
      0.0000000	      0.0000000	      0.0000000
      0.0000000	      0.0000000	      0.0000000
      0.0000000	      0.0000000	      0.0000000
      0.0000000	      0.0000000	      0.0000000
      0.0000000	      0.0000000	      0.0000000
      0.0000000	      0.0000000	      0.0000000
      0.0000000	      0.0000000	      0.0000000
      0.0000000	      0.0000000	      0.0000000
      0.0000000	      0.0000000	      0.0000000
      0.0000000	      0.0000000	      0.0000000
      0.0000000	      0.0000000	      0.0000000
      0.0000000	      0.0000000	      0.0000000
      0.0000000	      0.0000000	      0.0000000
      0.0000000	      0.0000000	      0.0000000
      0.0000000	      0.0000000	      0.0000000
      0.0000000	      0.0000000	      0.0000000
      0.0000000	      0.0000000	      0.0000000
      0.0000000	      0.0000000	      0.0000000
      0.0000000	      0.0000000	      0.0000000
      0.0000000	      0.0000000	      0.0000000
      0.0000000	      0.0000000	      0.0000000
      0.0000000	      0.0000000	      0.0000000
      0.0000000	      0.0000000	      0.0000000
      0.0000000	      0.0000000	      0.0000000
      0.0000000	      0.0000000	      0.0000000
      0.0000000	      0.0000000	      0.0000000
      0.0000000	      0.0000000	      0.0000000
      0.0000000	      0.0000000	      0.0000000
      0.0000000	      0.0000000	      0.0000000
      0.0000000	      0.0000000	      0.0000000
      0.0000000	      0.0000000	      0.0000000
      0.0000000	      0.0000000	      0.0000000
      0.0000000	      0.0000000	      0.0000000
      0.0000000	      0.0000000	      0.0000000
      0.0000000	      0.0000000	      0.0000000
      0.0000000	      0.0000000	      0.0000000
      0.0000000	      0.0000000	      0.0000000
      0.0000000	      0.0000000	      0.0000000
      0.0000000	      0.0000000	      0.0000000
      0.0000000	      0.0000000	      0.0000000
      0.0000000	      0.0000000	      0.0000000
      0.0000000	      0.0000000	      0.0000000
      0.0000000	      0.0000000	      0.0000000
      0.0000000	      0.0000000	      0.0000000
      0.0000000	      0.0000000	      0.0000000
      0.0000000	      0.0000000	      0.0000000
      0.0000000	      0.0000000	      0.0000000
      0.0000000	      0.0000000	      0.0000000
      0.0000000	      0.0000000	      0.0000000
      0.0000000	      0.0000000	      0.0000000
      0.0000000	      0.0000000	      0.0000000
      0.0000000	      0.0000000	      0.0000000
      0.0000000	      0.0000000	      0.0000000
      0.0000000	      0.0000000	      0.0000000
      0.0000000	      0.0000000	      0.0000000
      0.0000000	      0.0000000	      0.0000000
      0.0000000	      0.0000000	      0.0000000
      0.0000000	      0.0000000	      0.0000000
      0.0000000	      0.0000000	      0.0000000
      0.0000000	      0.0000000	      0.0000000
      0.0000000	      0.0000000	      0.0000000
      0.0000000	      0.0000000	      0.0000000
      0.0000000	      0.0000000	      0.0000000
      0.0000000	      0.0000000	      0.0000000
      0.0000000	      0.0000000	      0.0000000
      0.0000000	      0.0000000	      0.0000000
      0.0000000	      0.0000000	      0.0000000
      0.0000000	      0.0000000	      0.0000000
      0.0000000	      0.0000000	      0.0000000
      0.0000000	      0.0000000	      0.0000000
      0.0000000	      0.0000000	      0.0000000
      0.0000000	      0.0000000	      0.0000000
      0.0000000	      0.0000000	      0.0000000
      0.0000000	      0.0000000	      0.0000000
      0.0000000	      0.0000000	      0.0000000
      0.0000000	      0.0000000	      0.0000000
      0.0000000	      0.0000000	      0.0000000
      0.0000000	      0.0000000	      0.0000000
      0.0000000	      0.0000000	      0.0000000
      0.0000000	      0.0000000	      0.0000000
      0.0000000	      0.0000000	      0.0000000
      0.0000000	      0.0000000	      0.0000000
      0.0000000	      0.0000000	      0.0000000
      0.0000000	      0.0000000	      0.0000000
      0.0000000	      0.0000000	      0.0000000
      0.0000000	      0.0000000	      0.0000000
      0.0000000	      0.0000000	      0.0000000
      0.0000000	      0.0000000	      0.0000000
      0.0000000	      0.0000000	      0.0000000
      0.0000000	      0.0000000	      0.0000000
      0.0000000	      0.0000000	      0.0000000
      0.0000000	      0.0000000	      0.0000000
      0.0000000	      0.0000000	      0.0000000
      0.0000000	      0.0000000	      0.0000000
      0.0000000	      0.0000000	      0.0000000
     -0.0021796	     -0.0027431	      0.0000000
     -0.0022138	     -0.0036578	      0.0000000
     -0.0009548	     -0.0040785	      0.0000000
      0.0001669	     -0.0041500	      0.0000000
      0.0016321	     -0.0041121	      0.0000000
      0.0028087	     -0.0039949	      0.0000000
      0.0039629	     -0.0038490	      0.0000000
      0.0048001	     -0.0036868	      0.0000000
      0.0054739	     -0.0035204	      0.0000000
      0.0058457	     -0.0033556	      0.0000000
      0.0060064	     -0.0031945	      0.0000000
      0.0058909	     -0.0030389	      0.0000000
      0.0055525	     -0.0028876	      0.0000000
      0.0049594	     -0.0027403	      0.0000000
      0.0041407	     -0.0025953	      0.0000000
      0.0030785	     -0.0024513	      0.0000000
      0.0017864	     -0.0023067	      0.0000000
      0.0002522	     -0.0021606	      0.0000000
     -0.0015198	     -0.0020122	      0.0000000
     -0.0035393	     -0.0018610	      0.0000000
     -0.0058064	     -0.0017068	      0.0000000
     -0.0083286	     -0.0015496	      0.0000000
     -0.0111079	     -0.0013894	      0.0000000
     -0.0141488	     -0.0012270	      0.0000000
     -0.0174520	     -0.0010629	      0.0000000
     -0.0210186	     -0.0008982	      0.0000000
     -0.0248462	     -0.0007340	      0.0000000
     -0.0289313	     -0.0005718	      0.0000000
     -0.0332666	     -0.0004131	      0.0000000
     -0.0378425	     -0.0002599	      0.0000000
     -0.0426454	     -0.0001145	      0.0000000
     -0.0476579	      0.0000209	      0.0000000
     -0.0528582	      0.0001434	      0.0000000
     -0.0582197	      0.0002499	      0.0000000
     -0.0637108	      0.0003370	      0.0000000
     -0.0692945	      0.0004014	      0.0000000
     -0.0749284	      0.0004395	      0.0000000
     -0.0805647	      0.0004475	      0.0000000
     -0.0861497	      0.0004217	      0.0000000
     -0.0916247	      0.0003585	      0.0000000
     -0.0969256	      0.0002545	      0.0000000
     -0.1019841	      0.0001063	      0.0000000
     -0.1067275	     -0.0000888	      0.0000000
     -0.1110800	     -0.0003332	      0.0000000
     -0.1149636	     -0.0006286	      0.0000000
     -0.1182993	     -0.0009760	      0.0000000
     -0.1210081	     -0.0013751	      0.0000000
     -0.1230136	     -0.0018246	      0.0000000
     -0.1242432	     -0.0023214	      0.0000000
     -0.1246306	     -0.0028607	      0.0000000
     -0.1241186	     -0.0034372	      0.0000000
     -0.1226584	     -0.0040451	      0.0000000
     -0.1202111	     -0.0046774	      0.0000000
     -0.1167497	     -0.0053261	      0.0000000
     -0.1122599	     -0.0059819	      0.0000000
     -0.1067423	     -0.0066346	      0.0000000
     -0.1002135	     -0.0072726	      0.0000000
     -0.0927072	     -0.0078839	      0.0000000
     -0.0842752	     -0.0084560	      0.0000000
     -0.0749874	     -0.0089760	      0.0000000
     -0.0649316	     -0.0094315	      0.0000000
     -0.0542134	     -0.0098105	      0.0000000
     -0.0429549	     -0.0101020	      0.0000000
     -0.0312925	     -0.0102966	      0.0000000
     -0.0193758	     -0.0103865	      0.0000000
     -0.0073637	     -0.0103664	      0.0000000
      0.0045782	     -0.0102334	      0.0000000
      0.0162813	     -0.0099881	      0.0000000
      0.0275789	     -0.0096333	      0.0000000
      0.0383102	     -0.0091750	      0.0000000
      0.0483241	     -0.0086225	      0.0000000
      0.0574830	     -0.0079866	      0.0000000
      0.0656676	     -0.0072821	      0.0000000
      0.0727793	     -0.0065245	      0.0000000
      0.0787425	     -0.0057315	      0.0000000
      0.0835080	     -0.0049208	      0.0000000
      0.0870512	     -0.0041107	      0.0000000
      0.0893759	     -0.0033191	      0.0000000
      0.0905092	     -0.0025625	      0.0000000
      0.0905048	     -0.0018559	      0.0000000
      0.0894346	     -0.0012122	      0.0000000
      0.0873934	     -0.0006388	      0.0000000
      0.0844784	     -0.0001357	      0.0000000
      0.0807968	      0.0002966	      0.0000000
      0.0764502	      0.0006579	      0.0000000
      0.0715527	      0.0009501	      0.0000000
      0.0661984	      0.0011774	      0.0000000
      0.0605005	      0.0013435	      0.0000000
      0.0545362	      0.0014543	      0.0000000
      0.0484189	      0.0015111	      0.0000000
      0.0422059	      0.0015185	      0.0000000
      0.0360237	      0.0014695	      0.0000000
      0.0299169	      0.0013643	      0.0000000
      0.0240512	      0.0011780	      0.0000000
      0.0184770	      0.0009079	      0.0000000
      0.0134273	      0.0005011	      0.0000000
      0.0089833	     -0.0000161	      0.0000000
      0.0054087	     -0.0007041	      0.0000000
      0.0027988	     -0.0013035	      0.0000000
      0.0010579	     -0.0016263	      0.0000000
      0.0000000	      0.0000000	      0.0000000
      0.0000000	      0.0000000	      0.0000000
     -0.0024094	     -0.0042612	      0.0000000
     -0.0023966	     -0.0062026	      0.0000000
     -0.0009972	     -0.0072279	      0.0000000
      0.0004832	     -0.0075397	      0.0000000
      0.0023988	     -0.0075215	      0.0000000
      0.0040104	     -0.0072597	      0.0000000
      0.0055384	     -0.0068789	      0.0000000
      0.0066105	     -0.0064198	      0.0000000
      0.0073694	     -0.0059282	      0.0000000
      0.0076373	     -0.0054216	      0.0000000
      0.0075067	     -0.0049157	      0.0000000
      0.0068946	     -0.0044151	      0.0000000
      0.0058582	     -0.0039225	      0.0000000
      0.0043570	     -0.0034361	      0.0000000
      0.0024223	     -0.0029536	      0.0000000
      0.0000306	     -0.0024714	      0.0000000
     -0.0028050	     -0.0019866	      0.0000000
     -0.0061016	     -0.0014961	      0.0000000
     -0.0098571	     -0.0009980	      0.0000000
     -0.0140854	     -0.0004913	      0.0000000
     -0.0187897	      0.0000246	      0.0000000
     -0.0239809	      0.0005492	      0.0000000
     -0.0296618	      0.0010810	      0.0000000
     -0.0358381	      0.0016178	      0.0000000
     -0.0425089	      0.0021567	      0.0000000
     -0.0496724	      0.0026941	      0.0000000
     -0.0573208	      0.0032257	      0.0000000
     -0.0654425	      0.0037461	      0.0000000
     -0.0740195	      0.0042496	      0.0000000
     -0.0830280	      0.0047293	      0.0000000
     -0.0924366	      0.0051776	      0.0000000
     -0.1022067	      0.0055861	      0.0000000
     -0.1122910	      0.0059455	      0.0000000
     -0.1226339	      0.0062459	      0.0000000
     -0.1331701	      0.0064767	      0.0000000
     -0.1438253	      0.0066270	      0.0000000
     -0.1545154	      0.0066857	      0.0000000
     -0.1651471	      0.0066415	      0.0000000
     -0.1756179	      0.0064834	      0.0000000
     -0.1858168	      0.0062010	      0.0000000
     -0.1956250	      0.0057843	      0.0000000
     -0.2049174	      0.0052247	      0.0000000
     -0.2135632	      0.0045149	      0.0000000
     -0.2214280	      0.0036494	      0.0000000
     -0.2283754	      0.0026249	      0.0000000
     -0.2342695	      0.0014407	      0.0000000
     -0.2389768	      0.0000994	      0.0000000
     -0.2423695	     -0.0013925	      0.0000000
     -0.2443283	     -0.0030247	      0.0000000
     -0.2447461	     -0.0047813	      0.0000000
     -0.2435329	     -0.0066447	      0.0000000
     -0.2406138	     -0.0085963	      0.0000000
     -0.2359321	     -0.0106138	      0.0000000
     -0.2294515	     -0.0126722	      0.0000000
     -0.2211576	     -0.0147433	      0.0000000
     -0.2110609	     -0.0167958	      0.0000000
     -0.1991980	     -0.0187961	      0.0000000
     -0.1856332	     -0.0207085	      0.0000000
     -0.1704594	     -0.0224966	      0.0000000
     -0.1537984	     -0.0241234	      0.0000000
     -0.1358002	     -0.0255529	      0.0000000
     -0.1166424	     -0.0267508	      0.0000000
     -0.0965283	     -0.0276856	      0.0000000
     -0.0756846	     -0.0283298	      0.0000000
     -0.0543579	     -0.0286608	      0.0000000
     -0.0328111	     -0.0286623	      0.0000000
     -0.0113187	     -0.0283249	      0.0000000
      0.0098387	     -0.0276475	      0.0000000
      0.0303798	     -0.0266385	      0.0000000
      0.0500310	     -0.0253138	      0.0000000
      0.0685334	     -0.0236968	      0.0000000
      0.0856468	     -0.0218203	      0.0000000
      0.1011577	     -0.0197236	      0.0000000
      0.1148843	     -0.0174512	      0.0000000
      0.1266801	     -0.0150531	      0.0000000
      0.1364391	     -0.0125812	      0.0000000
      0.1440958	     -0.0100889	      0.0000000
      0.1496297	     -0.0076288	      0.0000000
      0.1530603	     -0.0052510	      0.0000000
      0.1544507	     -0.0030016	      0.0000000
      0.1538983	     -0.0009208	      0.0000000
      0.1515379	      0.0009640	      0.0000000
      0.1475254	      0.0026424	      0.0000000
      0.1420377	      0.0041069	      0.0000000
      0.1352475	      0.0053545	      0.0000000
      0.1273474	      0.0063873	      0.0000000
      0.1185087	      0.0072134	      0.0000000
      0.1089278	      0.0078405	      0.0000000
      0.0987593	      0.0082809	      0.0000000
      0.0882023	      0.0085382	      0.0000000
      0.0773892	      0.0086207	      0.0000000
      0.0665383	      0.0085136	      0.0000000
      0.0557661	      0.0082137	      0.0000000
      0.0453438	      0.0076692	      0.0000000
      0.0353868	      0.0068710	      0.0000000
      0.0262562	      0.0057176	      0.0000000
      0.0180639	      0.0042633	      0.0000000
      0.0112441	      0.0024005	      0.0000000
      0.0058280	      0.0005856	      0.0000000
      0.0021434	     -0.0009790	      0.0000000
      0.0000000	      0.0000000	      0.0000000
      0.0000000	      0.0000000	      0.0000000
     -0.0024152	     -0.0052908	      0.0000000
     -0.0024146	     -0.0084493	      0.0000000
     -0.0010561	     -0.0102232	      0.0000000
      0.0004170	     -0.0108949	      0.0000000
      0.0023092	     -0.0109177	      0.0000000
      0.0038608	     -0.0104604	      0.0000000
      0.0052489	     -0.0097373	      0.0000000
      0.0060760	     -0.0088320	      0.0000000
      0.0064597	     -0.0078410	      0.0000000
      0.0062060	     -0.0067999	      0.0000000
      0.0053946	     -0.0057471	      0.0000000
      0.0039335	     -0.0046918	      0.0000000
      0.0018726	     -0.0036440	      0.0000000
     -0.0008344	     -0.0026004	      0.0000000
     -0.0041617	     -0.0015595	      0.0000000
     -0.0081379	     -0.0005142	      0.0000000
     -0.0127544	      0.0005398	      0.0000000
     -0.0180330	      0.0016077	      0.0000000
     -0.0239753	      0.0026921	      0.0000000
     -0.0305990	      0.0037948	      0.0000000
     -0.0379101	      0.0049156	      0.0000000
     -0.0459210	      0.0060527	      0.0000000
     -0.0546353	      0.0072017	      0.0000000
     -0.0640573	      0.0083575	      0.0000000
     -0.0741832	      0.0095127	      0.0000000
     -0.0850056	      0.0106586	      0.0000000
     -0.0965087	      0.0117849	      0.0000000
     -0.1086701	      0.0128795	      0.0000000
     -0.1214576	      0.0139287	      0.0000000
     -0.1348304	      0.0149173	      0.0000000
     -0.1487365	      0.0158284	      0.0000000
     -0.1631132	      0.0166434	      0.0000000
     -0.1778860	      0.0173426	      0.0000000
     -0.1929681	      0.0179050	      0.0000000
     -0.2082603	      0.0183085	      0.0000000
     -0.2236509	      0.0185309	      0.0000000
     -0.2390158	      0.0185496	      0.0000000
     -0.2542192	      0.0183425	      0.0000000
     -0.2691143	      0.0178882	      0.0000000
     -0.2835445	      0.0171669	      0.0000000
     -0.2973447	      0.0161608	      0.0000000
     -0.3103430	      0.0148548	      0.0000000
     -0.3223629	      0.0132368	      0.0000000
     -0.3332256	      0.0112989	      0.0000000
     -0.3427522	      0.0090378	      0.0000000
     -0.3507672	      0.0064556	      0.0000000
     -0.3571006	      0.0035604	      0.0000000
     -0.3615921	      0.0003681	      0.0000000
     -0.3640947	     -0.0030976	      0.0000000
     -0.3644773	     -0.0068028	      0.0000000
     -0.3626334	     -0.0107095	      0.0000000
     -0.3584765	     -0.0147787	      0.0000000
     -0.3519440	     -0.0189649	      0.0000000
     -0.3429993	     -0.0232177	      0.0000000
     -0.3316338	     -0.0274808	      0.0000000
     -0.3178696	     -0.0316930	      0.0000000
     -0.3017609	     -0.0357889	      0.0000000
     -0.2833957	     -0.0397000	      0.0000000
     -0.2628960	     -0.0433565	      0.0000000
     -0.2404185	     -0.0466883	      0.0000000
     -0.2161535	     -0.0496271	      0.0000000
     -0.1903243	     -0.0521076	      0.0000000
     -0.1631849	     -0.0540701	      0.0000000
     -0.1350177	     -0.0554616	      0.0000000
     -0.1061299	     -0.0562384	      0.0000000
     -0.0768494	     -0.0563672	      0.0000000
     -0.0475202	     -0.0558278	      0.0000000
     -0.0184962	     -0.0546141	      0.0000000
      0.0098645	     -0.0527359	      0.0000000
      0.0372071	     -0.0502217	      0.0000000
      0.0631902	     -0.0471148	      0.0000000
      0.0874928	     -0.0434710	      0.0000000
      0.1098247	     -0.0393639	      0.0000000
      0.1299287	     -0.0348761	      0.0000000
      0.1475888	     -0.0301010	      0.0000000
      0.1626377	     -0.0251376	      0.0000000
      0.1749559	     -0.0200895	      0.0000000
      0.1844795	     -0.0150599	      0.0000000
      0.1911962	     -0.0101482	      0.0000000
      0.1951484	     -0.0054484	      0.0000000
      0.1964273	     -0.0010433	      0.0000000
      0.1951709	      0.0029987	      0.0000000
      0.1915659	      0.0066387	      0.0000000
      0.1858279	      0.0098560	      0.0000000
      0.1781759	      0.0126388	      0.0000000
      0.1688567	      0.0149849	      0.0000000
      0.1580998	      0.0169024	      0.0000000
      0.1461658	      0.0184017	      0.0000000
      0.1332745	      0.0194992	      0.0000000
      0.1196958	      0.0202010	      0.0000000
      0.1056297	      0.0205159	      0.0000000
      0.0913708	      0.0204225	      0.0000000
      0.0771008	      0.0199075	      0.0000000
      0.0631753	      0.0188964	      0.0000000
      0.0497634	      0.0173628	      0.0000000
      0.0373275	      0.0151726	      0.0000000
      0.0260050	      0.0123853	      0.0000000
      0.0163933	      0.0088878	      0.0000000
      0.0085050	      0.0052062	      0.0000000
      0.0031066	      0.0015647	      0.0000000
      0.0000000	      0.0000000	      0.0000000
      0.0000000	      0.0000000	      0.0000000
     -0.0023101	     -0.0066964	      0.0000000
     -0.0023550	     -0.0108714	      0.0000000
     -0.0012199	     -0.0132666	      0.0000000
     -0.0000541	     -0.0142025	      0.0000000
      0.0014238	     -0.0141968	      0.0000000
      0.0024950	     -0.0134775	      0.0000000
      0.0033080	     -0.0123336	      0.0000000
      0.0034688	     -0.0108918	      0.0000000
      0.0030734	     -0.0092954	      0.0000000
      0.0019214	     -0.0076018	      0.0000000
      0.0000778	     -0.0058721	      0.0000000
     -0.0025575	     -0.0041227	      0.0000000
     -0.0059452	     -0.0023717	      0.0000000
     -0.0101391	     -0.0006155	      0.0000000
     -0.0151220	      0.0011469	      0.0000000
     -0.0209284	      0.0029241	      0.0000000
     -0.0275561	      0.0047211	      0.0000000
     -0.0350321	      0.0065447	      0.0000000
     -0.0433635	      0.0083974	      0.0000000
     -0.0525717	      0.0102812	      0.0000000
     -0.0626656	      0.0121938	      0.0000000
     -0.0736583	      0.0141305	      0.0000000
     -0.0855532	      0.0160830	      0.0000000
     -0.0983516	      0.0180406	      0.0000000
     -0.1120445	      0.0199895	      0.0000000
     -0.1266169	      0.0219135	      0.0000000
     -0.1420422	      0.0237934	      0.0000000
     -0.1582846	      0.0256075	      0.0000000
     -0.1752953	      0.0273315	      0.0000000
     -0.1930137	      0.0289385	      0.0000000
     -0.2113648	      0.0303993	      0.0000000
     -0.2302600	      0.0316825	      0.0000000
     -0.2495956	      0.0327548	      0.0000000
     -0.2692533	      0.0335814	      0.0000000
     -0.2890996	      0.0341267	      0.0000000
     -0.3089869	      0.0343550	      0.0000000
     -0.3287534	      0.0342308	      0.0000000
     -0.3482246	      0.0337201	      0.0000000
     -0.3672148	      0.0327909	      0.0000000
     -0.3855285	      0.0314142	      0.0000000
     -0.4029625	      0.0295650	      0.0000000
     -0.4193085	      0.0272231	      0.0000000
     -0.4343556	      0.0243741	      0.0000000
     -0.4478931	      0.0210103	      0.0000000
     -0.4597134	      0.0171314	      0.0000000
     -0.4696159	      0.0127460	      0.0000000
     -0.4774093	      0.0078718	      0.0000000
     -0.4829157	      0.0025383	      0.0000000
     -0.4859743	     -0.0032147	      0.0000000
     -0.4864431	     -0.0093307	      0.0000000
     -0.4842080	     -0.0157471	      0.0000000
     -0.4791800	     -0.0224012	      0.0000000
     -0.4712955	     -0.0292206	      0.0000000
     -0.4605215	     -0.0361261	      0.0000000
     -0.4468553	     -0.0430300	      0.0000000
     -0.4303282	     -0.0498380	      0.0000000
     -0.4110063	     -0.0564503	      0.0000000
     -0.3889919	     -0.0627630	      0.0000000
     -0.3644241	     -0.0686705	      0.0000000
     -0.3374788	     -0.0740671	      0.0000000
     -0.3083681	     -0.0788499	      0.0000000
     -0.2773395	     -0.0829205	      0.0000000
     -0.2446742	     -0.0861882	      0.0000000
     -0.2106844	     -0.0885719	      0.0000000
     -0.1757104	     -0.0900036	      0.0000000
     -0.1401170	     -0.0904299	      0.0000000
     -0.1042887	     -0.0898158	      0.0000000
     -0.0686242	     -0.0881458	      0.0000000
     -0.0335313	     -0.0854282	      0.0000000
      0.0005824	     -0.0816956	      0.0000000
      0.0333102	     -0.0770050	      0.0000000
      0.0642690	     -0.0714421	      0.0000000
      0.0930975	     -0.0651098	      0.0000000
      0.1194728	     -0.0581271	      0.0000000
      0.1431116	     -0.0506350	      0.0000000
      0.1637803	     -0.0427825	      0.0000000
      0.1812973	     -0.0347266	      0.0000000
      0.1955429	     -0.0266278	      0.0000000
      0.2064544	     -0.0186427	      0.0000000
      0.2140334	     -0.0109219	      0.0000000
      0.2183390	     -0.0036005	      0.0000000
      0.2194900	      0.0031965	      0.0000000
      0.2176632	      0.0093842	      0.0000000
      0.2130952	      0.0149186	      0.0000000
      0.2060282	      0.0197700	      0.0000000
      0.1967431	      0.0239245	      0.0000000
      0.1855099	      0.0273838	      0.0000000
      0.1726370	      0.0301556	      0.0000000
      0.1583959	      0.0322560	      0.0000000
      0.1431153	      0.0336910	      0.0000000
      0.1270516	      0.0344680	      0.0000000
      0.1105655	      0.0345590	      0.0000000
      0.0938921	      0.0339415	      0.0000000
      0.0774597	      0.0325220	      0.0000000
      0.0614754	      0.0302556	      0.0000000
      0.0464930	      0.0269803	      0.0000000
      0.0326612	      0.0227367	      0.0000000
      0.0207460	      0.0173853	      0.0000000
      0.0107589	      0.0114175	      0.0000000
      0.0038941	      0.0050097	      0.0000000
      0.0000000	      0.0000000	      0.0000000
      0.0000000	      0.0000000	      0.0000000
     -0.0023069	     -0.0078673	      0.0000000
     -0.0025151	     -0.0129064	      0.0000000
     -0.0017387	     -0.0157916	      0.0000000
     -0.0010830	     -0.0168842	      0.0000000
     -0.0002673	     -0.0167486	      0.0000000
      0.0000312	     -0.0156695	      0.0000000
     -0.0000464	     -0.0140002	      0.0000000
     -0.0008772	     -0.0119094	      0.0000000
     -0.0023766	     -0.0095852	      0.0000000
     -0.0047427	     -0.0071070	      0.0000000
     -0.0079226	     -0.0045585	      0.0000000
     -0.0120208	     -0.0019637	      0.0000000
     -0.0170098	      0.0006512	      0.0000000
     -0.0229504	      0.0032894	      0.0000000
     -0.0298339	      0.0059491	      0.0000000
     -0.0377019	      0.0086410	      0.0000000
     -0.0465610	      0.0113701	      0.0000000
     -0.0564443	      0.0141447	      0.0000000
     -0.0673653	      0.0169665	      0.0000000
     -0.0793494	      0.0198356	      0.0000000
     -0.0924083	      0.0227460	      0.0000000
     -0.1065555	      0.0256885	      0.0000000
     -0.1217928	      0.0286482	      0.0000000
     -0.1381171	      0.0316067	      0.0000000
     -0.1555128	      0.0345411	      0.0000000
     -0.1739552	      0.0374244	      0.0000000
     -0.1934052	      0.0402259	      0.0000000
     -0.2138114	      0.0429110	      0.0000000
     -0.2351063	      0.0454414	      0.0000000
     -0.2572077	      0.0477756	      0.0000000
     -0.2800162	      0.0498687	      0.0000000
     -0.3034162	      0.0516734	      0.0000000
     -0.3272745	      0.0531403	      0.0000000
     -0.3514413	      0.0542185	      0.0000000
     -0.3757504	      0.0548566	      0.0000000
     -0.4000200	      0.0550040	      0.0000000
     -0.4240541	      0.0546115	      0.0000000
     -0.4476441	      0.0536327	      0.0000000
     -0.4705708	      0.0520252	      0.0000000
     -0.4926065	      0.0497520	      0.0000000
     -0.5135181	      0.0467822	      0.0000000
     -0.5330695	      0.0430930	      0.0000000
     -0.5510248	      0.0386699	      0.0000000
     -0.5671519	      0.0335085	      0.0000000
     -0.5812248	      0.0276153	      0.0000000
     -0.5930281	      0.0210088	      0.0000000
     -0.6023588	      0.0137199	      0.0000000
     -0.6090315	      0.0057953	      0.0000000
     -0.6128781	     -0.0027063	      0.0000000
     -0.6137546	     -0.0117031	      0.0000000
     -0.6115412	     -0.0211044	      0.0000000
     -0.6061485	     -0.0308208	      0.0000000
     -0.5975118	     -0.0407503	      0.0000000
     -0.5855988	     -0.0507820	      0.0000000
     -0.5704088	     -0.0607947	      0.0000000
     -0.5519760	     -0.0706584	      0.0000000
     -0.5303701	     -0.0802364	      0.0000000
     -0.5056979	     -0.0893874	      0.0000000
     -0.4781036	     -0.0979677	      0.0000000
     -0.4477694	     -0.1058341	      0.0000000
     -0.4149147	     -0.1128463	      0.0000000
     -0.3797958	     -0.1188703	      0.0000000
     -0.3427043	     -0.1237815	      0.0000000
     -0.3039653	     -0.1274677	      0.0000000
     -0.2639350	     -0.1298326	      0.0000000
     -0.2229972	     -0.1307991	      0.0000000
     -0.1815595	     -0.1303128	      0.0000000
     -0.1400487	     -0.1283448	      0.0000000
     -0.0989045	     -0.1248956	      0.0000000
     -0.0585754	     -0.1199960	      0.0000000
     -0.0195081	     -0.1137137	      0.0000000
      0.0178551	     -0.1061487	      0.0000000
      0.0530921	     -0.0974365	      0.0000000
      0.0858115	     -0.0877380	      0.0000000
      0.1156611	     -0.0772355	      0.0000000
      0.1423414	     -0.0661302	      0.0000000
      0.1656021	     -0.0546398	      0.0000000
      0.1852571	     -0.0429864	      0.0000000
      0.2011824	     -0.0313906	      0.0000000
      0.2133263	     -0.0200689	      0.0000000
      0.2216981	     -0.0092203	      0.0000000
      0.2263842	      0.0009671	      0.0000000
      0.2275187	      0.0103396	      0.0000000
      0.2253424	      0.0188076	      0.0000000
      0.2201044	      0.0263192	      0.0000000
      0.2121044	      0.0328391	      0.0000000
      0.2016384	      0.0383553	      0.0000000
      0.1890497	      0.0428666	      0.0000000
      0.1746489	      0.0463833	      0.0000000
      0.1588124	      0.0489076	      0.0000000
      0.1418431	      0.0504420	      0.0000000
      0.1241582	      0.0509523	      0.0000000
      0.1060388	      0.0504035	      0.0000000
      0.0879780	      0.0486882	      0.0000000
      0.0702189	      0.0457355	      0.0000000
      0.0534017	      0.0413618	      0.0000000
      0.0376970	      0.0355585	      0.0000000
      0.0240308	      0.0281556	      0.0000000
      0.0124351	      0.0195099	      0.0000000
      0.0044626	      0.0096955	      0.0000000
      0.0000000	      0.0000000	      0.0000000
      0.0000000	      0.0000000	      0.0000000
     -0.0023676	     -0.0090666	      0.0000000
     -0.0028390	     -0.0147610	      0.0000000
     -0.0025684	     -0.0179275	      0.0000000
     -0.0026126	     -0.0189811	      0.0000000
     -0.0026910	     -0.0185584	      0.0000000
     -0.0034250	     -0.0169874	      0.0000000
     -0.0046730	     -0.0146794	      0.0000000