# vtk DataFile Version 2.0
vw
ASCII
DATASET STRUCTURED_POINTS
DIMENSIONS  102  102    1
ORIGIN      0.0000000      0.0000000      0.0000000
SPACING      0.0100000      0.0100000      0.0100000
POINT_DATA  10404
VECTORS velocity float
      0.0000000	      0.0000000	      0.0000000
      0.0000000	      0.0000000	      0.0000000
      0.0000000	      0.0000000	      0.0000000
      0.0000000	      0.0000000	      0.0000000
      0.0000000	      0.0000000	      0.0000000
      0.0000000	      0.0000000	      0.0000000
      0.0000000	      0.0000000	      0.0000000
      0.0000000	      0.0000000	      0.0000000
      0.0000000	      0.0000000	      0.0000000
      0.0000000	      0.0000000	      0.0000000
      0.0000000	      0.0000000	      0.0000000
      0.0000000	      0.0000000	      0.0000000
      0.0000000	      0.0000000	      0.0000000
      0.0000000	      0.0000000	      0.0000000
      0.0000000	      0.0000000	      0.0000000
      0.0000000	      0.0000000	      0.0000000
      0.0000000	      0.0000000	      0.0000000
      0.0000000	      0.0000000	      0.0000000
      0.0000000	      0.0000000	      0.0000000
      0.0000000	      0.0000000	      0.0000000
      0.0000000	      0.0000000	      0.0000000
      0.0000000	      0.0000000	      0.0000000
      0.0000000	      0.0000000	      0.0000000
      0.0000000	      0.0000000	      0.0000000
      0.0000000	      0.0000000	      0.0000000
      0.0000000	      0.0000000	      0.0000000
      0.0000000	      0.0000000	      0.0000000
      0.0000000	      0.0000000	      0.0000000
      0.0000000	      0.0000000	      0.0000000
      0.0000000	      0.0000000	      0.0000000
      0.0000000	      0.0000000	      0.0000000
      0.0000000	      0.0000000	      0.0000000
      0.0000000	      0.0000000	      0.0000000
      0.0000000	      0.0000000	      0.0000000
      0.0000000	      0.0000000	      0.0000000
      0.0000000	      0.0000000	      0.0000000
      0.0000000	      0.0000000	      0.0000000
      0.0000000	      0.0000000	      0.0000000
      0.0000000	      0.0000000	      0.0000000
      0.0000000	      0.0000000	      0.0000000
      0.0000000	      0.0000000	      0.0000000
      0.0000000	      0.0000000	      0.0000000
      0.0000000	      0.0000000	      0.0000000
      0.0000000	      0.0000000	      0.0000000
      0.0000000	      0.0000000	      0.0000000
      0.0000000	      0.0000000	      0.0000000
      0.0000000	      0.0000000	      0.0000000
      0.0000000	      0.0000000	      0.0000000
      0.0000000	      0.0000000	      0.0000000
      0.0000000	      0.0000000	      0.0000000
      0.0000000	      0.0000000	      0.0000000
      0.0000000	      0.0000000	      0.0000000
      0.0000000	      0.0000000	      0.0000000
      0.0000000	      0.0000000	      0.0000000
      0.0000000	      0.0000000	      0.0000000
      0.0000000	      0.0000000	      0.0000000
      0.0000000	      0.0000000	      0.0000000
      0.0000000	      0.0000000	      0.0000000
      0.0000000	      0.0000000	      0.0000000
      0.0000000	      0.0000000	      0.0000000
      0.0000000	      0.0000000	      0.0000000
      0.0000000	      0.0000000	      0.0000000
      0.0000000	      0.0000000	      0.0000000
      0.0000000	      0.0000000	      0.0000000
      0.0000000	      0.0000000	      0.0000000
      0.0000000	      0.0000000	      0.0000000
      0.0000000	      0.0000000	      0.0000000
      0.0000000	      0.0000000	      0.0000000
      0.0000000	      0.0000000	      0.0000000
      0.0000000	      0.0000000	      0.0000000
      0.0000000	      0.0000000	      0.0000000
      0.0000000	      0.0000000	      0.0000000
      0.0000000	      0.0000000	      0.0000000
      0.0000000	      0.0000000	      0.0000000
      0.0000000	      0.0000000	      0.0000000
      0.0000000	      0.0000000	      0.0000000
      0.0000000	      0.0000000	      0.0000000
      0.0000000	      0.0000000	      0.0000000
      0.0000000	      0.0000000	      0.0000000
      0.0000000	      0.0000000	      0.0000000
      0.0000000	      0.0000000	      0.0000000
      0.0000000	      0.0000000	      0.0000000
      0.0000000	      0.0000000	      0.0000000
      0.0000000	      0.0000000	      0.0000000
      0.0000000	      0.0000000	      0.0000000
      0.0000000	      0.0000000	      0.0000000
      0.0000000	      0.0000000	      0.0000000
      0.0000000	      0.0000000	      0.0000000
      0.0000000	      0.0000000	      0.0000000
      0.0000000	      0.0000000	      0.0000000
      0.0000000	      0.0000000	      0.0000000
      0.0000000	      0.0000000	      0.0000000
      0.0000000	      0.0000000	      0.0000000
      0.0000000	      0.0000000	      0.0000000
      0.0000000	      0.0000000	      0.0000000
      0.0000000	      0.0000000	      0.0000000
      0.0000000	      0.0000000	      0.0000000
      0.0000000	      0.0000000	      0.0000000
      0.0000000	      0.0000000	      0.0000000
      0.0000000	      0.0000000	      0.0000000
      0.0000000	      0.0000000	      0.0000000
      0.0000000	      0.0000000	      0.0000000
      0.0000000	      0.0000000	      0.0000000
      0.0001926	      0.0000851	      0.0000000
      0.0002047	      0.0001868	      0.0000000
      0.0000302	      0.0002964	      0.0000000
     -0.0002801	      0.0004018	      0.0000000
     -0.0007559	      0.0004906	      0.0000000
     -0.0013401	      0.0005639	      0.0000000
     -0.0020359	      0.0006183	      0.0000000
     -0.0027975	      0.0006584	      0.0000000
     -0.0036212	      0.0006845	      0.0000000
     -0.0044759	      0.0007013	      0.0000000
     -0.0053584	      0.0007098	      0.0000000
     -0.0062499	      0.0007133	      0.0000000
     -0.0071494	      0.0007127	      0.0000000
     -0.0080464	      0.0007099	      0.0000000
     -0.0089414	      0.0007053	      0.0000000
     -0.0098290	      0.0007000	      0.0000000
     -0.0107099	      0.0006940	      0.0000000
     -0.0115816	      0.0006877	      0.0000000
     -0.0124446	      0.0006811	      0.0000000
     -0.0132975	      0.0006743	      0.0000000
     -0.0141405	      0.0006672	      0.0000000
     -0.0149726	      0.0006598	      0.0000000
     -0.0157939	      0.0006520	      0.0000000
     -0.0166034	      0.0006439	      0.0000000
     -0.0174008	      0.0006353	      0.0000000
     -0.0181854	      0.0006263	      0.0000000
     -0.0189567	      0.0006169	      0.0000000
     -0.0197138	      0.0006069	      0.0000000
     -0.0204562	      0.0005964	      0.0000000
     -0.0211830	      0.0005853	      0.0000000
     -0.0218935	      0.0005737	      0.0000000
     -0.0225869	      0.0005615	      0.0000000
     -0.0232624	      0.0005487	      0.0000000
     -0.0239192	      0.0005352	      0.0000000
     -0.0245564	      0.0005212	      0.0000000
     -0.0251730	      0.0005065	      0.0000000
     -0.0257684	      0.0004912	      0.0000000
     -0.0263414	      0.0004752	      0.0000000
     -0.0268913	      0.0004586	      0.0000000
     -0.0274170	      0.0004412	      0.0000000
     -0.0279176	      0.0004232	      0.0000000
     -0.0283922	      0.0004045	      0.0000000
     -0.0288397	      0.0003851	      0.0000000
     -0.0292592	      0.0003650	      0.0000000
     -0.0296498	      0.0003442	      0.0000000
     -0.0300104	      0.0003227	      0.0000000
     -0.0303400	      0.0003005	      0.0000000
     -0.0306377	      0.0002776	      0.0000000
     -0.0309025	      0.0002541	      0.0000000
     -0.0311335	      0.0002299	      0.0000000
     -0.0313297	      0.0002050	      0.0000000
     -0.0314902	      0.0001795	      0.0000000
     -0.0316141	      0.0001534	      0.0000000
     -0.0317006	      0.0001267	      0.0000000
     -0.0317489	      0.0000995	      0.0000000
     -0.0317581	      0.0000717	      0.0000000
     -0.0317276	      0.0000435	      0.0000000
     -0.0316566	      0.0000147	      0.0000000
     -0.0315442	     -0.0000146	      0.0000000
     -0.0313900	     -0.0000443	      0.0000000
     -0.0311932	     -0.0000744	      0.0000000
     -0.0309535	     -0.0001048	      0.0000000
     -0.0306703	     -0.0001354	      0.0000000
     -0.0303435	     -0.0001662	      0.0000000
     -0.0299726	     -0.0001972	      0.0000000
     -0.0295576	     -0.0002282	      0.0000000
     -0.0290985	     -0.0002592	      0.0000000
     -0.0285951	     -0.0002901	      0.0000000
     -0.0280477	     -0.0003208	      0.0000000
     -0.0274564	     -0.0003514	      0.0000000
     -0.0268216	     -0.0003816	      0.0000000
     -0.0261438	     -0.0004115	      0.0000000
     -0.0254234	     -0.0004410	      0.0000000
     -0.0246612	     -0.0004699	      0.0000000
     -0.0238578	     -0.0004982	      0.0000000
     -0.0230143	     -0.0005258	      0.0000000
     -0.0221314	     -0.0005527	      0.0000000
     -0.0212105	     -0.0005788	      0.0000000
     -0.0202525	     -0.0006039	      0.0000000
     -0.0192591	     -0.0006281	      0.0000000
     -0.0182313	     -0.0006513	      0.0000000
     -0.0171713	     -0.0006732	      0.0000000
     -0.0160802	     -0.0006939	      0.0000000
     -0.0149612	     -0.0007131	      0.0000000
     -0.0138155	     -0.0007305	      0.0000000
     -0.0126479	     -0.0007457	      0.0000000
     -0.0114602	     -0.0007583	      0.0000000
     -0.0102605	     -0.0007671	      0.0000000
     -0.0090517	     -0.0007715	      0.0000000
     -0.0078472	     -0.0007693	      0.0000000
     -0.0066523	     -0.0007594	      0.0000000
     -0.0054890	     -0.0007385	      0.0000000
     -0.0043658	     -0.0007051	      0.0000000
     -0.0033165	     -0.0006539	      0.0000000
     -0.0023528	     -0.0005848	      0.0000000
     -0.0015214	     -0.0004905	      0.0000000
     -0.0008337	     -0.0003763	      0.0000000
     -0.0003410	     -0.0002367	      0.0000000
     -0.0000414	     -0.0000996	      0.0000000
      0.0000530	      0.0000183	      0.0000000
      0.0000000	      0.0000000	      0.0000000
      0.0000000	      0.0000000	      0.0000000
      0.0001594	      0.0001567	      0.0000000
      0.0000454	      0.0004435	      0.0000000
     -0.0003550	      0.0007571	      0.0000000
     -0.0009941	      0.0010684	      0.0000000
     -0.0019013	      0.0013369	      0.0000000
     -0.0030019	      0.0015634	      0.0000000
     -0.0042914	      0.0017377	      0.0000000
     -0.0057043	      0.0018695	      0.0000000
     -0.0072272	      0.0019606	      0.0000000
     -0.0088133	      0.0020215	      0.0000000
     -0.0104514	      0.0020568	      0.0000000
     -0.0121122	      0.0020746	      0.0000000
     -0.0137893	      0.0020787	      0.0000000
     -0.0154663	      0.0020742	      0.0000000
     -0.0171405	      0.0020633	      0.0000000
     -0.0188033	      0.0020486	      0.0000000
     -0.0204540	      0.0020311	      0.0000000
     -0.0220883	      0.0020120	      0.0000000
     -0.0237058	      0.0019915	      0.0000000
     -0.0253042	      0.0019699	      0.0000000
     -0.0268832	      0.0019472	      0.0000000
     -0.0284410	      0.0019234	      0.0000000
     -0.0299772	      0.0018985	      0.0000000
     -0.0314901	      0.0018724	      0.0000000
     -0.0329792	      0.0018449	      0.0000000
     -0.0344428	      0.0018160	      0.0000000
     -0.0358799	      0.0017857	      0.0000000
     -0.0372891	      0.0017538	      0.0000000
     -0.0386692	      0.0017203	      0.0000000
     -0.0400187	      0.0016851	      0.0000000
     -0.0413362	      0.0016482	      0.0000000
     -0.0426203	      0.0016096	      0.0000000
     -0.0438694	      0.0015691	      0.0000000
     -0.0450819	      0.0015268	      0.0000000
     -0.0462565	      0.0014826	      0.0000000
     -0.0473913	      0.0014364	      0.0000000
     -0.0484849	      0.0013884	      0.0000000
     -0.0495356	      0.0013383	      0.0000000
     -0.0505418	      0.0012862	      0.0000000
     -0.0515016	      0.0012320	      0.0000000
     -0.0524136	      0.0011758	      0.0000000
     -0.0532759	      0.0011175	      0.0000000
     -0.0540868	      0.0010572	      0.0000000
     -0.0548446	      0.0009947	      0.0000000
     -0.0555476	      0.0009301	      0.0000000
     -0.0561940	      0.0008635	      0.0000000
     -0.0567822	      0.0007947	      0.0000000
     -0.0573104	      0.0007239	      0.0000000
     -0.0577770	      0.0006511	      0.0000000
     -0.0581803	      0.0005763	      0.0000000
     -0.0585187	      0.0004995	      0.0000000
     -0.0587907	      0.0004208	      0.0000000
     -0.0589946	      0.0003404	      0.0000000
     -0.0591291	      0.0002582	      0.0000000
     -0.0591928	      0.0001743	      0.0000000
     -0.0591843	      0.0000889	      0.0000000
     -0.0591023	      0.0000018	      0.0000000
     -0.0589456	     -0.0000867	      0.0000000
     -0.0587130	     -0.0001767	      0.0000000
     -0.0584034	     -0.0002679	      0.0000000
     -0.0580161	     -0.0003602	      0.0000000
     -0.0575501	     -0.0004534	      0.0000000
     -0.0570049	     -0.0005473	      0.0000000
     -0.0563800	     -0.0006417	      0.0000000
     -0.0556750	     -0.0007365	      0.0000000
     -0.0548897	     -0.0008314	      0.0000000
     -0.0540241	     -0.0009264	      0.0000000
     -0.0530784	     -0.0010211	      0.0000000
     -0.0520527	     -0.0011153	      0.0000000
     -0.0509477	     -0.0012089	      0.0000000
     -0.0497640	     -0.0013016	      0.0000000
     -0.0485025	     -0.0013931	      0.0000000
     -0.0471641	     -0.0014833	      0.0000000
     -0.0457501	     -0.0015719	      0.0000000
     -0.0442620	     -0.0016587	      0.0000000
     -0.0427014	     -0.0017434	      0.0000000
     -0.0410700	     -0.0018258	      0.0000000
     -0.0393701	     -0.0019057	      0.0000000
     -0.0376036	     -0.0019829	      0.0000000
     -0.0357734	     -0.0020569	      0.0000000
     -0.0338817	     -0.0021276	      0.0000000
     -0.0319323	     -0.0021946	      0.0000000
     -0.0299278	     -0.0022572	      0.0000000
     -0.0278735	     -0.0023148	      0.0000000
     -0.0257728	     -0.0023665	      0.0000000
     -0.0236338	     -0.0024106	      0.0000000
     -0.0214615	     -0.0024454	      0.0000000
     -0.0192690	     -0.0024677	      0.0000000
     -0.0170644	     -0.0024748	      0.0000000
     -0.0148693	     -0.0024608	      0.0000000
     -0.0126968	     -0.0024216	      0.0000000
     -0.0105815	     -0.0023484	      0.0000000
     -0.0085427	     -0.0022365	      0.0000000
     -0.0066323	     -0.0020736	      0.0000000
     -0.0048741	     -0.0018582	      0.0000000
     -0.0033371	     -0.0015765	      0.0000000
     -0.0020411	     -0.0012417	      0.0000000
     -0.0010600	     -0.0008459	      0.0000000
     -0.0003869	     -0.0004532	      0.0000000
     -0.0000575	     -0.0000930	      0.0000000
      0.0000000	      0.0000000	      0.0000000
      0.0000000	      0.0000000	      0.0000000
      0.0000776	      0.0003118	      0.0000000
     -0.0002017	      0.0008892	      0.0000000
     -0.0008630	      0.0015129	      0.0000000
     -0.0018355	      0.0021323	      0.0000000
     -0.0031523	      0.0026743	      0.0000000
     -0.0047234	      0.0031343	      0.0000000
     -0.0065397	      0.0034956	      0.0000000
     -0.0085226	      0.0037717	      0.0000000
     -0.0106517	      0.0039677	      0.0000000
     -0.0128695	      0.0041010	      0.0000000
     -0.0151585	      0.0041821	      0.0000000
     -0.0174819	      0.0042253	      0.0000000
     -0.0198289	      0.0042394	      0.0000000
     -0.0221784	      0.0042339	      0.0000000
     -0.0245247	      0.0042141	      0.0000000
     -0.0268568	      0.0041851	      0.0000000
     -0.0291721	      0.0041494	      0.0000000
     -0.0314646	      0.0041093	      0.0000000
     -0.0337334	      0.0040658	      0.0000000
     -0.0359747	      0.0040195	      0.0000000
     -0.0381878	      0.0039707	      0.0000000
     -0.0403702	      0.0039193	      0.0000000
     -0.0425207	      0.0038654	      0.0000000
     -0.0446374	      0.0038088	      0.0000000
     -0.0467189	      0.0037494	      0.0000000
     -0.0487631	      0.0036870	      0.0000000
     -0.0507684	      0.0036215	      0.0000000
     -0.0527330	      0.0035527	      0.0000000
     -0.0546549	      0.0034806	      0.0000000
     -0.0565321	      0.0034050	      0.0000000
     -0.0583628	      0.0033259	      0.0000000
     -0.0601448	      0.0032431	      0.0000000
     -0.0618761	      0.0031567	      0.0000000
     -0.0635545	      0.0030664	      0.0000000
     -0.0651780	      0.0029722	      0.0000000
     -0.0667443	      0.0028741	      0.0000000
     -0.0682513	      0.0027720	      0.0000000
     -0.0696967	      0.0026659	      0.0000000
     -0.0710784	      0.0025557	      0.0000000
     -0.0723939	      0.0024413	      0.0000000
     -0.0736411	      0.0023228	      0.0000000
     -0.0748177	      0.0022001	      0.0000000
     -0.0759214	      0.0020731	      0.0000000
     -0.0769499	      0.0019420	      0.0000000
     -0.0779009	      0.0018066	      0.0000000
     -0.0787722	      0.0016670	      0.0000000
     -0.0795614	      0.0015232	      0.0000000
     -0.0802664	      0.0013753	      0.0000000
     -0.0808849	      0.0012234	      0.0000000
     -0.0814149	      0.0010674	      0.0000000
     -0.0818542	      0.0009076	      0.0000000
     -0.0822007	      0.0007441	      0.0000000
     -0.0824525	      0.0005769	      0.0000000
     -0.0826078	      0.0004062	      0.0000000
     -0.0826647	      0.0002323	      0.0000000
     -0.0826215	      0.0000551	      0.0000000
     -0.0824764	     -0.0001251	      0.0000000
     -0.0822281	     -0.0003084	      0.0000000
     -0.0818750	     -0.0004943	      0.0000000
     -0.0814160	     -0.0006825	      0.0000000
     -0.0808500	     -0.0008728	      0.0000000
     -0.0801761	     -0.0010647	      0.0000000
     -0.0793936	     -0.0012580	      0.0000000
     -0.0785018	     -0.0014523	      0.0000000
     -0.0775005	     -0.0016473	      0.0000000
     -0.0763896	     -0.0018424	      0.0000000
     -0.0751690	     -0.0020375	      0.0000000
     -0.0738391	     -0.0022319	      0.0000000
     -0.0724004	     -0.0024254	      0.0000000
     -0.0708536	     -0.0026174	      0.0000000
     -0.0691998	     -0.0028075	      0.0000000
     -0.0674402	     -0.0029953	      0.0000000
     -0.0655762	     -0.0031802	      0.0000000
     -0.0636098	     -0.0033618	      0.0000000
     -0.0615427	     -0.0035397	      0.0000000
     -0.0593774	     -0.0037133	      0.0000000
     -0.0571163	     -0.0038822	      0.0000000
     -0.0547625	     -0.0040458	      0.0000000
     -0.0523186	     -0.0042037	      0.0000000
     -0.0497887	     -0.0043552	      0.0000000
     -0.0471759	     -0.0044998	      0.0000000
     -0.0444853	     -0.0046363	      0.0000000
     -0.0417210	     -0.0047639	      0.0000000
     -0.0388898	     -0.0048806	      0.0000000
     -0.0359972	     -0.0049846	      0.0000000
     -0.0330537	     -0.0050723	      0.0000000
     -0.0300671	     -0.0051401	      0.0000000
     -0.0270544	     -0.0051816	      0.0000000
     -0.0240278	     -0.0051904	      0.0000000
     -0.0210149	     -0.0051560	      0.0000000
     -0.0180347	     -0.0050687	      0.0000000
     -0.0151307	     -0.0049131	      0.0000000
     -0.0123297	     -0.0046783	      0.0000000
     -0.0096957	     -0.0043446	      0.0000000
     -0.0072603	     -0.0039073	      0.0000000
     -0.0051084	     -0.0033473	      0.0000000
     -0.0032633	     -0.0026850	      0.0000000
     -0.0018212	     -0.0019167	      0.0000000
     -0.0007693	     -0.0011379	      0.0000000
     -0.0001904	     -0.0003971	      0.0000000
      0.0000000	      0.0000000	      0.0000000
      0.0000000	      0.0000000	      0.0000000
     -0.0000292	      0.0006274	      0.0000000
     -0.0004979	      0.0015733	      0.0000000
     -0.0014338	      0.0025699	      0.0000000
     -0.0027323	      0.0035477	      0.0000000
     -0.0044295	      0.0044083	      0.0000000
     -0.0064214	      0.0051413	      0.0000000
     -0.0086977	      0.0057237	      0.0000000
     -0.0111706	      0.0061725	      0.0000000
     -0.0138159	      0.0064962	      0.0000000
     -0.0165691	      0.0067194	      0.0000000
     -0.0194084	      0.0068588	      0.0000000
     -0.0222920	      0.0069357	      0.0000000
     -0.0252053	      0.0069645	      0.0000000
     -0.0281238	      0.0069597	      0.0000000
     -0.0310394	      0.0069302	      0.0000000
     -0.0339387	      0.0068841	      0.0000000
     -0.0368175	      0.0068260	      0.0000000
     -0.0396685	      0.0067596	      0.0000000
     -0.0424894	      0.0066865	      0.0000000
     -0.0452759	      0.0066083	      0.0000000
     -0.0480261	      0.0065252	      0.0000000
     -0.0507371	      0.0064376	      0.0000000
     -0.0534071	      0.0063454	      0.0000000
     -0.0560334	      0.0062486	      0.0000000
     -0.0586143	      0.0061469	      0.0000000
     -0.0611471	      0.0060402	      0.0000000
     -0.0636297	      0.0059282	      0.0000000
     -0.0660598	      0.0058108	      0.0000000
     -0.0684349	      0.0056879	      0.0000000
     -0.0707527	      0.0055592	      0.0000000
     -0.0730107	      0.0054247	      0.0000000
     -0.0752063	      0.0052841	      0.0000000
     -0.0773371	      0.0051375	      0.0000000
     -0.0794003	      0.0049847	      0.0000000
     -0.0813935	      0.0048256	      0.0000000
     -0.0833140	      0.0046600	      0.0000000
     -0.0851592	      0.0044880	      0.0000000
     -0.0869263	      0.0043094	      0.0000000
     -0.0886127	      0.0041242	      0.0000000
     -0.0902156	      0.0039323	      0.0000000
     -0.0917324	      0.0037337	      0.0000000
     -0.0931603	      0.0035284	      0.0000000
     -0.0944967	      0.0033163	      0.0000000
     -0.0957387	      0.0030974	      0.0000000
     -0.0968838	      0.0028717	      0.0000000
     -0.0979292	      0.0026394	      0.0000000
     -0.0988723	      0.0024004	      0.0000000
     -0.0997104	      0.0021548	      0.0000000
     -0.1004411	      0.0019028	      0.0000000
     -0.1010618	      0.0016445	      0.0000000
     -0.1015701	      0.0013800	      0.0000000
     -0.1019635	      0.0011096	      0.0000000
     -0.1022399	      0.0008334	      0.0000000
     -0.1023970	      0.0005518	      0.0000000
     -0.1024328	      0.0002649	      0.0000000
     -0.1023453	     -0.0000270	      0.0000000
     -0.1021325	     -0.0003238	      0.0000000
     -0.1017929	     -0.0006250	      0.0000000
     -0.1013250	     -0.0009302	      0.0000000
     -0.1007273	     -0.0012390	      0.0000000
     -0.0999989	     -0.0015509	      0.0000000
     -0.0991387	     -0.0018653	      0.0000000
     -0.0981460	     -0.0021816	      0.0000000
     -0.0970203	     -0.0024994	      0.0000000
     -0.0957613	     -0.0028179	      0.0000000
     -0.0943689	     -0.0031367	      0.0000000
     -0.0928435	     -0.0034551	      0.0000000
     -0.0911853	     -0.0037723	      0.0000000
     -0.0893952	     -0.0040878	      0.0000000
     -0.0874742	     -0.0044008	      0.0000000
     -0.0854236	     -0.0047105	      0.0000000
     -0.0832450	     -0.0050162	      0.0000000
     -0.0809402	     -0.0053173	      0.0000000
     -0.0785117	     -0.0056128	      0.0000000
     -0.0759616	     -0.0059022	      0.0000000
     -0.0732931	     -0.0061845	      0.0000000
     -0.0705091	     -0.0064590	      0.0000000
     -0.0676133	     -0.0067249	      0.0000000
     -0.0646093	     -0.0069812	      0.0000000
     -0.0615017	     -0.0072271	      0.0000000
     -0.0582948	     -0.0074613	      0.0000000
     -0.0549946	     -0.0076822	      0.0000000
     -0.0516064	     -0.0078880	      0.0000000
     -0.0481386	     -0.0080758	      0.0000000
     -0.0445980	     -0.0082421	      0.0000000
     -0.0409974	     -0.0083814	      0.0000000
     -0.0373468	     -0.0084874	      0.0000000
     -0.0336662	     -0.0085502	      0.0000000
     -0.0299709	     -0.0085592	      0.0000000
     -0.0262930	     -0.0084983	      0.0000000
     -0.0226553	     -0.0083521	      0.0000000
     -0.0191076	     -0.0080977	      0.0000000
     -0.0156810	     -0.0077179	      0.0000000
     -0.0124481	     -0.0071853	      0.0000000
     -0.0094434	     -0.0064913	      0.0000000
     -0.0067641	     -0.0056124	      0.0000000
     -0.0044332	     -0.0045735	      0.0000000
     -0.0025687	     -0.0033743	      0.0000000
     -0.0011535	     -0.0021281	      0.0000000
     -0.0003258	     -0.0008947	      0.0000000
      0.0000000	      0.0000000	      0.0000000
      0.0000000	      0.0000000	      0.0000000
     -0.0001227	      0.0010786	      0.0000000
     -0.0007665	      0.0024834	      0.0000000
     -0.0019615	      0.0039233	      0.0000000
     -0.0035610	      0.0053143	      0.0000000
     -0.0056043	      0.0065407	      0.0000000
     -0.0079702	      0.0075858	      0.0000000
     -0.0106491	      0.0084226	      0.0000000
     -0.0135443	      0.0090710	      0.0000000
     -0.0166302	      0.0095438	      0.0000000
     -0.0198366	      0.0098730	      0.0000000
     -0.0231397	      0.0100822	      0.0000000
     -0.0264933	      0.0102003	      0.0000000
     -0.0298812	      0.0102478	      0.0000000
     -0.0332758	      0.0102448	      0.0000000
     -0.0366674	      0.0102046	      0.0000000
     -0.0400406	      0.0101385	      0.0000000
     -0.0433902	      0.0100535	      0.0000000
     -0.0467074	      0.0099549	      0.0000000
     -0.0499893	      0.0098457	      0.0000000
     -0.0532303	      0.0097278	      0.0000000
     -0.0564284	      0.0096023	      0.0000000
     -0.0595795	      0.0094695	      0.0000000
     -0.0626816	      0.0093296	      0.0000000
     -0.0657314	      0.0091825	      0.0000000
     -0.0687266	      0.0090279	      0.0000000
     -0.0716642	      0.0088658	      0.0000000
     -0.0745418	      0.0086958	      0.0000000
     -0.0773563	      0.0085178	      0.0000000
     -0.0801051	      0.0083315	      0.0000000
     -0.0827854	      0.0081367	      0.0000000
     -0.0853942	      0.0079333	      0.0000000
     -0.0879287	      0.0077211	      0.0000000
     -0.0903859	      0.0075000	      0.0000000
     -0.0927629	      0.0072698	      0.0000000
     -0.0950567	      0.0070304	      0.0000000
     -0.0972643	      0.0067817	      0.0000000
     -0.0993828	      0.0065235	      0.0000000
     -0.1014090	      0.0062559	      0.0000000
     -0.1033399	      0.0059786	      0.0000000
     -0.1051725	      0.0056917	      0.0000000
     -0.1069037	      0.0053952	      0.0000000
     -0.1085306	      0.0050889	      0.0000000
     -0.1100500	      0.0047728	      0.0000000
     -0.1114590	      0.0044471	      0.0000000
     -0.1127545	      0.0041117	      0.0000000
     -0.1139336	      0.0037667	      0.0000000
     -0.1149934	      0.0034123	      0.0000000
     -0.1159310	      0.0030484	      0.0000000
     -0.1167435	      0.0026753	      0.0000000
     -0.1174283	      0.0022933	      0.0000000
     -0.1179825	      0.0019025	      0.0000000
     -0.1184038	      0.0015033	      0.0000000
     -0.1186895	      0.0010960	      0.0000000
     -0.1188372	      0.0006808	      0.0000000
     -0.1188448	      0.0002583	      0.0000000
     -0.1187101	     -0.0001712	      0.0000000
     -0.1184310	     -0.0006076	      0.0000000
     -0.1180060	     -0.0010500	      0.0000000
     -0.1174335	     -0.0014979	      0.0000000
     -0.1167121	     -0.0019506	      0.0000000
     -0.1158407	     -0.0024074	      0.0000000
     -0.1148183	     -0.0028675	      0.0000000
     -0.1136442	     -0.0033303	      0.0000000
     -0.1123181	     -0.0037948	      0.0000000
     -0.1108396	     -0.0042603	      0.0000000
     -0.1092090	     -0.0047258	      0.0000000
     -0.1074264	     -0.0051904	      0.0000000
     -0.1054926	     -0.0056532	      0.0000000
     -0.1034085	     -0.0061132	      0.0000000
     -0.1011754	     -0.0065693	      0.0000000
     -0.0987949	     -0.0070205	      0.0000000
     -0.0962689	     -0.0074658	      0.0000000
     -0.0935995	     -0.0079040	      0.0000000
     -0.0907896	     -0.0083341	      0.0000000
     -0.0878418	     -0.0087550	      0.0000000
     -0.0847596	     -0.0091655	      0.0000000
     -0.0815465	     -0.0095645	      0.0000000
     -0.0782068	     -0.0099508	      0.0000000
     -0.0747446	     -0.0103231	      0.0000000
     -0.0711653	     -0.0106799	      0.0000000
     -0.0674739	     -0.0110194	      0.0000000
     -0.0636772	     -0.0113392	      0.0000000
     -0.0597815	     -0.0116365	      0.0000000
     -0.0557963	     -0.0119071	      0.0000000
     -0.0517297	     -0.0121457	      0.0000000
     -0.0475960	     -0.0123446	      0.0000000
     -0.0434067	     -0.0124942	      0.0000000
     -0.0391843	     -0.0125809	      0.0000000
     -0.0349459	     -0.0125890	      0.0000000
     -0.0307269	     -0.0124966	      0.0000000
     -0.0265525	     -0.0122816	      0.0000000
     -0.0224770	     -0.0119134	      0.0000000
     -0.0185336	     -0.0113675	      0.0000000
     -0.0148017	     -0.0106088	      0.0000000
     -0.0113170	     -0.0096235	      0.0000000
     -0.0081880	     -0.0083840	      0.0000000
     -0.0054369	     -0.0069159	      0.0000000
     -0.0032051	     -0.0052217	      0.0000000
     -0.0014730	     -0.0034204	      0.0000000
     -0.0004339	     -0.0015770	      0.0000000
      0.0000000	      0.0000000	      0.0000000
      0.0000000	      0.0000000	      0.0000000
     -0.0002050	      0.0016616	      0.0000000
     -0.0010074	      0.0036038	      0.0000000
     -0.0024366	      0.0055410	      0.0000000
     -0.0043052	      0.0073802	      0.0000000
     -0.0066540	      0.0089984	      0.0000000
     -0.0093445	      0.0103748	      0.0000000
     -0.0123681	      0.0114815	      0.0000000