# vtk DataFile Version 2.0
vw
ASCII
DATASET STRUCTURED_POINTS
DIMENSIONS  102  102    1
ORIGIN      0.0000000      0.0000000      0.0000000
SPACING      0.0100000      0.0100000      0.0100000
POINT_DATA  10404
VECTORS velocity float
      0.0000000	      0.0000000	      0.0000000
      0.0000000	      0.0000000	      0.0000000
      0.0000000	      0.0000000	      0.0000000
      0.0000000	      0.0000000	      0.0000000
      0.0000000	      0.0000000	      0.0000000
      0.0000000	      0.0000000	      0.0000000
      0.0000000	      0.0000000	      0.0000000
      0.0000000	      0.0000000	      0.0000000
      0.0000000	      0.0000000	      0.0000000
      0.0000000	      0.0000000	      0.0000000
      0.0000000	      0.0000000	      0.0000000
      0.0000000	      0.0000000	      0.0000000
      0.0000000	      0.0000000	      0.0000000
      0.0000000	      0.0000000	      0.0000000
      0.0000000	      0.0000000	      0.0000000
      0.0000000	      0.0000000	      0.0000000
      0.0000000	      0.0000000	      0.0000000
      0.0000000	      0.0000000	      0.0000000
      0.0000000	      0.0000000	      0.0000000
      0.0000000	      0.0000000	      0.0000000
      0.0000000	      0.0000000	      0.0000000
      0.0000000	      0.0000000	      0.0000000
      0.0000000	      0.0000000	      0.0000000
      0.0000000	      0.0000000	      0.0000000
      0.0000000	      0.0000000	      0.0000000
      0.0000000	      0.0000000	      0.0000000
      0.0000000	      0.0000000	      0.0000000
      0.0000000	      0.0000000	      0.0000000
      0.0000000	      0.0000000	      0.0000000
      0.0000000	      0.0000000	      0.0000000
      0.0000000	      0.0000000	      0.0000000
      0.0000000	      0.0000000	      0.0000000
      0.0000000	      0.0000000	      0.0000000
      0.0000000	      0.0000000	      0.0000000
      0.0000000	      0.0000000	      0.0000000
      0.0000000	      0.0000000	      0.0000000
      0.0000000	      0.0000000	      0.0000000
      0.0000000	      0.0000000	      0.0000000
      0.0000000	      0.0000000	      0.0000000
      0.0000000	      0.0000000	      0.0000000
      0.0000000	      0.0000000	      0.0000000
      0.0000000	      0.0000000	      0.0000000
      0.0000000	      0.0000000	      0.0000000
      0.0000000	      0.0000000	      0.0000000
      0.0000000	      0.0000000	      0.0000000
      0.0000000	      0.0000000	      0.0000000
      0.0000000	      0.0000000	      0.0000000
      0.0000000	      0.0000000	      0.0000000
      0.0000000	      0.0000000	      0.0000000
      0.0000000	      0.0000000	      0.0000000
      0.0000000	      0.0000000	      0.0000000
      0.0000000	      0.0000000	      0.0000000
      0.0000000	      0.0000000	      0.0000000
      0.0000000	      0.0000000	      0.0000000
      0.0000000	      0.0000000	      0.0000000
      0.0000000	      0.0000000	      0.0000000
      0.0000000	      0.0000000	      0.0000000
      0.0000000	      0.0000000	      0.0000000
      0.0000000	      0.0000000	      0.0000000
      0.0000000	      0.0000000	      0.0000000
      0.0000000	      0.0000000	      0.0000000
      0.0000000	      0.0000000	      0.0000000
      0.0000000	      0.0000000	      0.0000000
      0.0000000	      0.0000000	      0.0000000
      0.0000000	      0.0000000	      0.0000000
      0.0000000	      0.0000000	      0.0000000
      0.0000000	      0.0000000	      0.0000000
      0.0000000	      0.0000000	      0.0000000
      0.0000000	      0.0000000	      0.0000000
      0.0000000	      0.0000000	      0.0000000
      0.0000000	      0.0000000	      0.0000000
      0.0000000	      0.0000000	      0.0000000
      0.0000000	      0.0000000	      0.0000000
      0.0000000	      0.0000000	      0.0000000
      0.0000000	      0.0000000	      0.0000000
      0.0000000	      0.0000000	      0.0000000
      0.0000000	      0.0000000	      0.0000000
      0.0000000	      0.0000000	      0.0000000
      0.0000000	      0.0000000	      0.0000000
      0.0000000	      0.0000000	      0.0000000
      0.0000000	      0.0000000	      0.0000000
      0.0000000	      0.0000000	      0.0000000
      0.0000000	      0.0000000	      0.0000000
      0.0000000	      0.0000000	      0.0000000
      0.0000000	      0.0000000	      0.0000000
      0.0000000	      0.0000000	      0.0000000
      0.0000000	      0.0000000	      0.0000000
      0.0000000	      0.0000000	      0.0000000
      0.0000000	      0.0000000	      0.0000000
      0.0000000	      0.0000000	      0.0000000
      0.0000000	      0.0000000	      0.0000000
      0.0000000	      0.0000000	      0.0000000
      0.0000000	      0.0000000	      0.0000000
      0.0000000	      0.0000000	      0.0000000
      0.0000000	      0.0000000	      0.0000000
      0.0000000	      0.0000000	      0.0000000
      0.0000000	      0.0000000	      0.0000000
      0.0000000	      0.0000000	      0.0000000
      0.0000000	      0.0000000	      0.0000000
      0.0000000	      0.0000000	      0.0000000
      0.0000000	      0.0000000	      0.0000000
      0.0000000	      0.0000000	      0.0000000
      0.0000000	      0.0000000	      0.0000000
      0.0000343	     -0.0000644	      0.0000000
     -0.0000074	      0.0000008	      0.0000000
     -0.0001773	      0.0000944	      0.0000000
     -0.0004974	      0.0002000	      0.0000000
     -0.0009674	      0.0002922	      0.0000000
     -0.0015632	      0.0003734	      0.0000000
     -0.0022753	      0.0004375	      0.0000000
     -0.0030741	      0.0004891	      0.0000000
     -0.0039493	      0.0005273	      0.0000000
     -0.0048768	      0.0005558	      0.0000000
     -0.0058482	      0.0005750	      0.0000000
     -0.0068463	      0.0005878	      0.0000000
     -0.0078655	      0.0005949	      0.0000000
     -0.0088949	      0.0005981	      0.0000000
     -0.0099312	      0.0005981	      0.0000000
     -0.0109679	      0.0005961	      0.0000000
     -0.0120033	      0.0005924	      0.0000000
     -0.0130341	      0.0005877	      0.0000000
     -0.0140594	      0.0005822	      0.0000000
     -0.0150773	      0.0005763	      0.0000000
     -0.0160876	      0.0005698	      0.0000000
     -0.0170891	      0.0005630	      0.0000000
     -0.0180815	      0.0005558	      0.0000000
     -0.0190641	      0.0005482	      0.0000000
     -0.0200363	      0.0005402	      0.0000000
     -0.0209975	      0.0005317	      0.0000000
     -0.0219470	      0.0005227	      0.0000000
     -0.0228840	      0.0005131	      0.0000000
     -0.0238077	      0.0005029	      0.0000000
     -0.0247172	      0.0004920	      0.0000000
     -0.0256114	      0.0004804	      0.0000000
     -0.0264894	      0.0004680	      0.0000000
     -0.0273500	      0.0004548	      0.0000000
     -0.0281920	      0.0004407	      0.0000000
     -0.0290141	      0.0004258	      0.0000000
     -0.0298151	      0.0004099	      0.0000000
     -0.0305936	      0.0003930	      0.0000000
     -0.0313481	      0.0003751	      0.0000000
     -0.0320771	      0.0003562	      0.0000000
     -0.0327791	      0.0003362	      0.0000000
     -0.0334526	      0.0003151	      0.0000000
     -0.0340958	      0.0002929	      0.0000000
     -0.0347072	      0.0002695	      0.0000000
     -0.0352850	      0.0002450	      0.0000000
     -0.0358274	      0.0002193	      0.0000000
     -0.0363328	      0.0001924	      0.0000000
     -0.0367994	      0.0001643	      0.0000000
     -0.0372253	      0.0001351	      0.0000000
     -0.0376089	      0.0001046	      0.0000000
     -0.0379484	      0.0000730	      0.0000000
     -0.0382420	      0.0000403	      0.0000000
     -0.0384880	      0.0000065	      0.0000000
     -0.0386849	     -0.0000284	      0.0000000
     -0.0388309	     -0.0000643	      0.0000000
     -0.0389247	     -0.0001011	      0.0000000
     -0.0389648	     -0.0001389	      0.0000000
     -0.0389497	     -0.0001776	      0.0000000
     -0.0388780	     -0.0002172	      0.0000000
     -0.0387484	     -0.0002576	      0.0000000
     -0.0385598	     -0.0002987	      0.0000000
     -0.0383112	     -0.0003403	      0.0000000
     -0.0380016	     -0.0003824	      0.0000000
     -0.0376306	     -0.0004249	      0.0000000
     -0.0371974	     -0.0004676	      0.0000000
     -0.0367019	     -0.0005104	      0.0000000
     -0.0361437	     -0.0005531	      0.0000000
     -0.0355231	     -0.0005957	      0.0000000
     -0.0348402	     -0.0006380	      0.0000000
     -0.0340955	     -0.0006799	      0.0000000
     -0.0332897	     -0.0007211	      0.0000000
     -0.0324235	     -0.0007617	      0.0000000
     -0.0314982	     -0.0008014	      0.0000000
     -0.0305149	     -0.0008400	      0.0000000
     -0.0294753	     -0.0008775	      0.0000000
     -0.0283811	     -0.0009137	      0.0000000
     -0.0272343	     -0.0009484	      0.0000000
     -0.0260370	     -0.0009814	      0.0000000
     -0.0247920	     -0.0010127	      0.0000000
     -0.0235019	     -0.0010420	      0.0000000
     -0.0221701	     -0.0010690	      0.0000000
     -0.0207999	     -0.0010935	      0.0000000
     -0.0193958	     -0.0011152	      0.0000000
     -0.0179620	     -0.0011337	      0.0000000
     -0.0165046	     -0.0011485	      0.0000000
     -0.0150290	     -0.0011590	      0.0000000
     -0.0135440	     -0.0011644	      0.0000000
     -0.0120564	     -0.0011640	      0.0000000
     -0.0105790	     -0.0011565	      0.0000000
     -0.0091203	     -0.0011411	      0.0000000
     -0.0076989	     -0.0011159	      0.0000000
     -0.0063249	     -0.0010800	      0.0000000
     -0.0050243	     -0.0010308	      0.0000000
     -0.0038087	     -0.0009678	      0.0000000
     -0.0027128	     -0.0008873	      0.0000000
     -0.0017474	     -0.0007904	      0.0000000
     -0.0009559	     -0.0006724	      0.0000000
     -0.0003430	     -0.0005393	      0.0000000
      0.0000465	     -0.0003886	      0.0000000
      0.0002288	     -0.0002390	      0.0000000
      0.0001879	     -0.0001002	      0.0000000
      0.0000000	      0.0000000	      0.0000000
      0.0000000	      0.0000000	      0.0000000
     -0.0000346	     -0.0000357	      0.0000000
     -0.0002330	      0.0001829	      0.0000000
     -0.0006625	      0.0004593	      0.0000000
     -0.0013339	      0.0007635	      0.0000000
     -0.0022550	      0.0010375	      0.0000000
     -0.0033892	      0.0012833	      0.0000000
     -0.0047231	      0.0014850	      0.0000000
     -0.0062125	      0.0016506	      0.0000000
     -0.0078382	      0.0017781	      0.0000000
     -0.0095627	      0.0018755	      0.0000000
     -0.0113686	      0.0019450	      0.0000000
     -0.0132284	      0.0019932	      0.0000000
     -0.0151294	      0.0020231	      0.0000000
     -0.0170534	      0.0020396	      0.0000000
     -0.0189922	      0.0020453	      0.0000000
     -0.0209348	      0.0020433	      0.0000000
     -0.0228765	      0.0020354	      0.0000000
     -0.0248109	      0.0020235	      0.0000000
     -0.0267357	      0.0020085	      0.0000000
     -0.0286472	      0.0019913	      0.0000000
     -0.0305439	      0.0019723	      0.0000000
     -0.0324239	      0.0019518	      0.0000000
     -0.0342859	      0.0019299	      0.0000000
     -0.0361284	      0.0019066	      0.0000000
     -0.0379503	      0.0018820	      0.0000000
     -0.0397501	      0.0018558	      0.0000000
     -0.0415265	      0.0018279	      0.0000000
     -0.0432779	      0.0017982	      0.0000000
     -0.0450027	      0.0017666	      0.0000000
     -0.0466991	      0.0017329	      0.0000000
     -0.0483654	      0.0016970	      0.0000000
     -0.0499994	      0.0016587	      0.0000000
     -0.0515992	      0.0016178	      0.0000000
     -0.0531626	      0.0015743	      0.0000000
     -0.0546871	      0.0015281	      0.0000000
     -0.0561705	      0.0014790	      0.0000000
     -0.0576102	      0.0014268	      0.0000000
     -0.0590036	      0.0013716	      0.0000000
     -0.0603480	      0.0013131	      0.0000000
     -0.0616406	      0.0012514	      0.0000000
     -0.0628786	      0.0011862	      0.0000000
     -0.0640591	      0.0011176	      0.0000000
     -0.0651789	      0.0010454	      0.0000000
     -0.0662352	      0.0009696	      0.0000000
     -0.0672248	      0.0008902	      0.0000000
     -0.0681446	      0.0008071	      0.0000000
     -0.0689914	      0.0007203	      0.0000000
     -0.0697621	      0.0006299	      0.0000000
     -0.0704535	      0.0005358	      0.0000000
     -0.0710626	      0.0004381	      0.0000000
     -0.0715863	      0.0003368	      0.0000000
     -0.0720216	      0.0002322	      0.0000000
     -0.0723656	      0.0001242	      0.0000000
     -0.0726155	      0.0000131	      0.0000000
     -0.0727685	     -0.0001011	      0.0000000
     -0.0728222	     -0.0002182	      0.0000000
     -0.0727740	     -0.0003382	      0.0000000
     -0.0726215	     -0.0004609	      0.0000000
     -0.0723626	     -0.0005860	      0.0000000
     -0.0719952	     -0.0007133	      0.0000000
     -0.0715178	     -0.0008424	      0.0000000
     -0.0709288	     -0.0009729	      0.0000000
     -0.0702272	     -0.0011046	      0.0000000
     -0.0694121	     -0.0012371	      0.0000000
     -0.0684829	     -0.0013699	      0.0000000
     -0.0674396	     -0.0015027	      0.0000000
     -0.0662821	     -0.0016351	      0.0000000
     -0.0650111	     -0.0017666	      0.0000000
     -0.0636273	     -0.0018968	      0.0000000
     -0.0621320	     -0.0020253	      0.0000000
     -0.0605268	     -0.0021517	      0.0000000
     -0.0588136	     -0.0022754	      0.0000000
     -0.0569949	     -0.0023960	      0.0000000
     -0.0550735	     -0.0025131	      0.0000000
     -0.0530524	     -0.0026261	      0.0000000
     -0.0509354	     -0.0027346	      0.0000000
     -0.0487264	     -0.0028380	      0.0000000
     -0.0464304	     -0.0029357	      0.0000000
     -0.0440522	     -0.0030270	      0.0000000
     -0.0415980	     -0.0031112	      0.0000000
     -0.0390740	     -0.0031874	      0.0000000
     -0.0364884	     -0.0032543	      0.0000000
     -0.0338492	     -0.0033108	      0.0000000
     -0.0311675	     -0.0033550	      0.0000000
     -0.0284537	     -0.0033851	      0.0000000
     -0.0257233	     -0.0033985	      0.0000000
     -0.0229899	     -0.0033928	      0.0000000
     -0.0202755	     -0.0033642	      0.0000000
     -0.0175975	     -0.0033096	      0.0000000
     -0.0149866	     -0.0032239	      0.0000000
     -0.0124644	     -0.0031039	      0.0000000
     -0.0100724	     -0.0029431	      0.0000000
     -0.0078352	     -0.0027394	      0.0000000
     -0.0058066	     -0.0024848	      0.0000000
     -0.0040095	     -0.0021821	      0.0000000
     -0.0025077	     -0.0018231	      0.0000000
     -0.0013127	     -0.0014245	      0.0000000
     -0.0004844	     -0.0009852	      0.0000000
     -0.0000017	     -0.0005608	      0.0000000
      0.0001267	     -0.0001809	      0.0000000
      0.0000000	      0.0000000	      0.0000000
      0.0000000	      0.0000000	      0.0000000
     -0.0001288	      0.0001308	      0.0000000
     -0.0005121	      0.0006057	      0.0000000
     -0.0012292	      0.0011668	      0.0000000
     -0.0022596	      0.0017668	      0.0000000
     -0.0036184	      0.0023168	      0.0000000
     -0.0052546	      0.0028127	      0.0000000
     -0.0071536	      0.0032282	      0.0000000
     -0.0092599	      0.0035726	      0.0000000
     -0.0115492	      0.0038431	      0.0000000
     -0.0139739	      0.0040520	      0.0000000
     -0.0165105	      0.0042047	      0.0000000
     -0.0191237	      0.0043124	      0.0000000
     -0.0217952	      0.0043821	      0.0000000
     -0.0245011	      0.0044226	      0.0000000
     -0.0272291	      0.0044398	      0.0000000
     -0.0299642	      0.0044399	      0.0000000
     -0.0326990	      0.0044267	      0.0000000
     -0.0354247	      0.0044040	      0.0000000
     -0.0381369	      0.0043741	      0.0000000
     -0.0408306	      0.0043388	      0.0000000
     -0.0435030	      0.0042992	      0.0000000
     -0.0461510	      0.0042560	      0.0000000
     -0.0487725	      0.0042095	      0.0000000
     -0.0513652	      0.0041599	      0.0000000
     -0.0539273	      0.0041072	      0.0000000
     -0.0564565	      0.0040510	      0.0000000
     -0.0589508	      0.0039913	      0.0000000
     -0.0614078	      0.0039278	      0.0000000
     -0.0638254	      0.0038602	      0.0000000
     -0.0662009	      0.0037881	      0.0000000
     -0.0685317	      0.0037114	      0.0000000
     -0.0708151	      0.0036298	      0.0000000
     -0.0730482	      0.0035429	      0.0000000
     -0.0752278	      0.0034506	      0.0000000
     -0.0773509	      0.0033525	      0.0000000
     -0.0794140	      0.0032485	      0.0000000
     -0.0814138	      0.0031383	      0.0000000
     -0.0833466	      0.0030217	      0.0000000
     -0.0852089	      0.0028984	      0.0000000
     -0.0869967	      0.0027684	      0.0000000
     -0.0887063	      0.0026314	      0.0000000
     -0.0903336	      0.0024872	      0.0000000
     -0.0918746	      0.0023358	      0.0000000
     -0.0933252	      0.0021770	      0.0000000
     -0.0946813	      0.0020107	      0.0000000
     -0.0959386	      0.0018369	      0.0000000
     -0.0970929	      0.0016556	      0.0000000
     -0.0981401	      0.0014667	      0.0000000
     -0.0990759	      0.0012704	      0.0000000
     -0.0998962	      0.0010667	      0.0000000
     -0.1005969	      0.0008557	      0.0000000
     -0.1011740	      0.0006378	      0.0000000
     -0.1016236	      0.0004130	      0.0000000
     -0.1019421	      0.0001817	      0.0000000
     -0.1021258	     -0.0000557	      0.0000000
     -0.1021712	     -0.0002993	      0.0000000
     -0.1020751	     -0.0005487	      0.0000000
     -0.1018345	     -0.0008034	      0.0000000
     -0.1014466	     -0.0010631	      0.0000000
     -0.1009089	     -0.0013271	      0.0000000
     -0.1002192	     -0.0015947	      0.0000000
     -0.0993758	     -0.0018653	      0.0000000
     -0.0983773	     -0.0021381	      0.0000000
     -0.0972225	     -0.0024125	      0.0000000
     -0.0959111	     -0.0026877	      0.0000000
     -0.0944427	     -0.0029628	      0.0000000
     -0.0928176	     -0.0032370	      0.0000000
     -0.0910367	     -0.0035094	      0.0000000
     -0.0891012	     -0.0037792	      0.0000000
     -0.0870127	     -0.0040455	      0.0000000
     -0.0847736	     -0.0043073	      0.0000000
     -0.0823867	     -0.0045638	      0.0000000
     -0.0798550	     -0.0048139	      0.0000000
     -0.0771826	     -0.0050568	      0.0000000
     -0.0743738	     -0.0052914	      0.0000000
     -0.0714336	     -0.0055166	      0.0000000
     -0.0683676	     -0.0057313	      0.0000000
     -0.0651823	     -0.0059342	      0.0000000
     -0.0618846	     -0.0061238	      0.0000000
     -0.0584829	     -0.0062985	      0.0000000
     -0.0549860	     -0.0064564	      0.0000000
     -0.0514050	     -0.0065948	      0.0000000
     -0.0477510	     -0.0067111	      0.0000000
     -0.0440392	     -0.0068017	      0.0000000
     -0.0402842	     -0.0068624	      0.0000000
     -0.0365068	     -0.0068881	      0.0000000
     -0.0327262	     -0.0068733	      0.0000000
     -0.0289713	     -0.0068106	      0.0000000
     -0.0252668	     -0.0066935	      0.0000000
     -0.0216524	     -0.0065123	      0.0000000
     -0.0181585	     -0.0062599	      0.0000000
     -0.0148379	     -0.0059248	      0.0000000
     -0.0117246	     -0.0055021	      0.0000000
     -0.0088854	     -0.0049796	      0.0000000
     -0.0063517	     -0.0043612	      0.0000000
     -0.0042015	     -0.0036381	      0.0000000
     -0.0024493	     -0.0028390	      0.0000000
     -0.0011713	     -0.0019711	      0.0000000
     -0.0003376	     -0.0011312	      0.0000000
      0.0000132	     -0.0003768	      0.0000000
      0.0000000	      0.0000000	      0.0000000
      0.0000000	      0.0000000	      0.0000000
     -0.0002355	      0.0004426	      0.0000000
     -0.0008217	      0.0012675	      0.0000000
     -0.0018412	      0.0021855	      0.0000000
     -0.0032305	      0.0031378	      0.0000000
     -0.0050104	      0.0040142	      0.0000000
     -0.0071128	      0.0048048	      0.0000000
     -0.0095249	      0.0054746	      0.0000000
     -0.0121814	      0.0060334	      0.0000000
     -0.0150558	      0.0064779	      0.0000000
     -0.0180934	      0.0068243	      0.0000000
     -0.0212670	      0.0070811	      0.0000000
     -0.0245353	      0.0072648	      0.0000000
     -0.0278761	      0.0073862	      0.0000000
     -0.0312610	      0.0074591	      0.0000000
     -0.0346746	      0.0074928	      0.0000000
     -0.0380986	      0.0074970	      0.0000000
     -0.0415230	      0.0074784	      0.0000000
     -0.0449369	      0.0074428	      0.0000000
     -0.0483341	      0.0073941	      0.0000000
     -0.0517080	      0.0073357	      0.0000000
     -0.0550547	      0.0072692	      0.0000000
     -0.0583699	      0.0071960	      0.0000000
     -0.0616507	      0.0071169	      0.0000000
     -0.0648938	      0.0070321	      0.0000000
     -0.0680967	      0.0069417	      0.0000000
     -0.0712563	      0.0068453	      0.0000000
     -0.0743700	      0.0067429	      0.0000000
     -0.0774348	      0.0066339	      0.0000000
     -0.0804478	      0.0065179	      0.0000000
     -0.0834056	      0.0063947	      0.0000000
     -0.0863051	      0.0062636	      0.0000000
     -0.0891427	      0.0061244	      0.0000000
     -0.0919148	      0.0059765	      0.0000000
     -0.0946176	      0.0058196	      0.0000000
     -0.0972472	      0.0056533	      0.0000000
     -0.0997995	      0.0054772	      0.0000000
     -0.1022704	      0.0052909	      0.0000000
     -0.1046553	      0.0050942	      0.0000000
     -0.1069500	      0.0048867	      0.0000000
     -0.1091497	      0.0046680	      0.0000000
     -0.1112499	      0.0044380	      0.0000000
     -0.1132456	      0.0041964	      0.0000000
     -0.1151321	      0.0039430	      0.0000000
     -0.1169043	      0.0036776	      0.0000000
     -0.1185574	      0.0034000	      0.0000000
     -0.1200862	      0.0031103	      0.0000000
     -0.1214857	      0.0028084	      0.0000000
     -0.1227510	      0.0024943	      0.0000000
     -0.1238770	      0.0021681	      0.0000000
     -0.1248587	      0.0018300	      0.0000000
     -0.1256914	      0.0014803	      0.0000000
     -0.1263702	      0.0011191	      0.0000000
     -0.1268907	      0.0007471	      0.0000000
     -0.1272483	      0.0003644	      0.0000000
     -0.1274388	     -0.0000283	      0.0000000
     -0.1274581	     -0.0004308	      0.0000000
     -0.1273024	     -0.0008425	      0.0000000
     -0.1269684	     -0.0012627	      0.0000000
     -0.1264527	     -0.0016906	      0.0000000
     -0.1257527	     -0.0021252	      0.0000000
     -0.1248658	     -0.0025656	      0.0000000
     -0.1237902	     -0.0030106	      0.0000000
     -0.1225242	     -0.0034592	      0.0000000
     -0.1210668	     -0.0039101	      0.0000000
     -0.1194174	     -0.0043620	      0.0000000
     -0.1175760	     -0.0048137	      0.0000000
     -0.1155431	     -0.0052638	      0.0000000
     -0.1133197	     -0.0057109	      0.0000000
     -0.1109075	     -0.0061537	      0.0000000
     -0.1083086	     -0.0065906	      0.0000000
     -0.1055259	     -0.0070202	      0.0000000
     -0.1025629	     -0.0074410	      0.0000000
     -0.0994235	     -0.0078514	      0.0000000
     -0.0961126	     -0.0082498	      0.0000000
     -0.0926354	     -0.0086346	      0.0000000
     -0.0889984	     -0.0090041	      0.0000000
     -0.0852083	     -0.0093562	      0.0000000
     -0.0812731	     -0.0096889	      0.0000000
     -0.0772014	     -0.0099998	      0.0000000
     -0.0730035	     -0.0102859	      0.0000000
     -0.0686902	     -0.0105441	      0.0000000
     -0.0642752	     -0.0107703	      0.0000000
     -0.0597723	     -0.0109597	      0.0000000
     -0.0551998	     -0.0111064	      0.0000000
     -0.0505757	     -0.0112040	      0.0000000
     -0.0459253	     -0.0112437	      0.0000000
     -0.0412719	     -0.0112168	      0.0000000
     -0.0366501	     -0.0111118	      0.0000000
     -0.0320898	     -0.0109177	      0.0000000
     -0.0276376	     -0.0106201	      0.0000000
     -0.0233298	     -0.0102074	      0.0000000
     -0.0192274	     -0.0096632	      0.0000000
     -0.0153702	     -0.0089795	      0.0000000
     -0.0118345	     -0.0081405	      0.0000000
     -0.0086555	     -0.0071513	      0.0000000
     -0.0059226	     -0.0060036	      0.0000000
     -0.0036493	     -0.0047377	      0.0000000
     -0.0019298	     -0.0033696	      0.0000000
     -0.0007270	     -0.0020268	      0.0000000
     -0.0001252	     -0.0007885	      0.0000000
      0.0000000	      0.0000000	      0.0000000
      0.0000000	      0.0000000	      0.0000000
     -0.0003320	      0.0009129	      0.0000000
     -0.0011095	      0.0021913	      0.0000000
     -0.0024184	      0.0035463	      0.0000000
     -0.0041486	      0.0049133	      0.0000000
     -0.0063246	      0.0061703	      0.0000000
     -0.0088584	      0.0073021	      0.0000000
     -0.0117387	      0.0082674	      0.0000000
     -0.0148905	      0.0090761	      0.0000000
     -0.0182865	      0.0097250	      0.0000000
     -0.0218658	      0.0102340	      0.0000000
     -0.0255989	      0.0106152	      0.0000000
     -0.0294399	      0.0108903	      0.0000000
     -0.0333642	      0.0110751	      0.0000000
     -0.0373398	      0.0111880	      0.0000000
     -0.0413488	      0.0112428	      0.0000000
     -0.0453704	      0.0112530	      0.0000000
     -0.0493927	      0.0112283	      0.0000000
     -0.0534028	      0.0111773	      0.0000000
     -0.0573931	      0.0111059	      0.0000000
     -0.0613556	      0.0110187	      0.0000000
     -0.0652854	      0.0109187	      0.0000000
     -0.0691769	      0.0108079	      0.0000000
     -0.0730266	      0.0106875	      0.0000000
     -0.0768303	      0.0105581	      0.0000000
     -0.0805847	      0.0104198	      0.0000000
     -0.0842863	      0.0102724	      0.0000000
     -0.0879316	      0.0101155	      0.0000000
     -0.0915170	      0.0099488	      0.0000000
     -0.0950390	      0.0097717	      0.0000000
     -0.0984937	      0.0095835	      0.0000000
     -0.1018772	      0.0093838	      0.0000000
     -0.1051855	      0.0091719	      0.0000000
     -0.1084144	      0.0089472	      0.0000000
     -0.1115593	      0.0087093	      0.0000000
     -0.1146159	      0.0084575	      0.0000000
     -0.1175793	      0.0081914	      0.0000000
     -0.1204447	      0.0079104	      0.0000000
     -0.1232072	      0.0076140	      0.0000000
     -0.1258616	      0.0073019	      0.0000000
     -0.1284027	      0.0069736	      0.0000000
     -0.1308251	      0.0066287	      0.0000000
     -0.1331235	      0.0062669	      0.0000000
     -0.1352922	      0.0058879	      0.0000000
     -0.1373257	      0.0054916	      0.0000000
     -0.1392184	      0.0050776	      0.0000000
     -0.1409645	      0.0046460	      0.0000000
     -0.1425585	      0.0041968	      0.0000000
     -0.1439946	      0.0037299	      0.0000000
     -0.1452673	      0.0032455	      0.0000000
     -0.1463710	      0.0027440	      0.0000000
     -0.1473003	      0.0022256	      0.0000000
     -0.1480499	      0.0016907	      0.0000000
     -0.1486147	      0.0011400	      0.0000000
     -0.1489896	      0.0005741	      0.0000000
     -0.1491701	     -0.0000064	      0.0000000
     -0.1491514	     -0.0006008	      0.0000000
     -0.1489297	     -0.0012083	      0.0000000
     -0.1485010	     -0.0018278	      0.0000000
     -0.1478620	     -0.0024582	      0.0000000
     -0.1470097	     -0.0030980	      0.0000000
     -0.1459415	     -0.0037459	      0.0000000
     -0.1446555	     -0.0044002	      0.0000000
     -0.1431499	     -0.0050594	      0.0000000
     -0.1414238	     -0.0057216	      0.0000000
     -0.1394767	     -0.0063852	      0.0000000
     -0.1373087	     -0.0070481	      0.0000000
     -0.1349205	     -0.0077086	      0.0000000
     -0.1323135	     -0.0083644	      0.0000000
     -0.1294897	     -0.0090137	      0.0000000
     -0.1264517	     -0.0096544	      0.0000000
     -0.1232028	     -0.0102841	      0.0000000
     -0.1197473	     -0.0109009	      0.0000000
     -0.1160897	     -0.0115023	      0.0000000
     -0.1122357	     -0.0120862	      0.0000000
     -0.1081916	     -0.0126500	      0.0000000
     -0.1039645	     -0.0131911	      0.0000000
     -0.0995624	     -0.0137068	      0.0000000
     -0.0949947	     -0.0141938	      0.0000000
     -0.0902711	     -0.0146486	      0.0000000
     -0.0854038	     -0.0150670	      0.0000000
     -0.0804050	     -0.0154441	      0.0000000
     -0.0752906	     -0.0157739	      0.0000000
     -0.0700766	     -0.0160496	      0.0000000
     -0.0647837	     -0.0162624	      0.0000000
     -0.0594329	     -0.0164027	      0.0000000
     -0.0540524	     -0.0164584	      0.0000000
     -0.0486691	     -0.0164166	      0.0000000
     -0.0433214	     -0.0162610	      0.0000000
     -0.0380434	     -0.0159760	      0.0000000
     -0.0328864	     -0.0155417	      0.0000000
     -0.0278910	     -0.0149418	      0.0000000
     -0.0231243	     -0.0141545	      0.0000000
     -0.0186295	     -0.0131685	      0.0000000
     -0.0144909	     -0.0119647	      0.0000000
     -0.0107449	     -0.0105490	      0.0000000
     -0.0074926	     -0.0089147	      0.0000000
     -0.0047457	     -0.0071108	      0.0000000
     -0.0026204	     -0.0051628	      0.0000000
     -0.0010739	     -0.0032186	      0.0000000
     -0.0002440	     -0.0013746	      0.0000000
      0.0000000	      0.0000000	      0.0000000
      0.0000000	      0.0000000	      0.0000000
     -0.0004204	      0.0015150	      0.0000000
     -0.0013770	      0.0033399	      0.0000000
     -0.0029568	      0.0051994	      0.0000000
     -0.0050047	      0.0070283	      0.0000000
     -0.0075469	      0.0087019	      0.0000000
     -0.0104746	      0.0102026	      0.0000000
     -0.0137780	      0.0114867	      0.0000000