# vtk DataFile Version 2.0
vw
ASCII
DATASET STRUCTURED_POINTS
DIMENSIONS  102  102    1
ORIGIN      0.0000000      0.0000000      0.0000000
SPACING      0.0100000      0.0100000      0.0100000
POINT_DATA  10404
VECTORS velocity float
      0.0000000	      0.0000000	      0.0000000
      0.0000000	      0.0000000	      0.0000000
      0.0000000	      0.0000000	      0.0000000
      0.0000000	      0.0000000	      0.0000000
      0.0000000	      0.0000000	      0.0000000
      0.0000000	      0.0000000	      0.0000000
      0.0000000	      0.0000000	      0.0000000
      0.0000000	      0.0000000	      0.0000000
      0.0000000	      0.0000000	      0.0000000
      0.0000000	      0.0000000	      0.0000000
      0.0000000	      0.0000000	      0.0000000
      0.0000000	      0.0000000	      0.0000000
      0.0000000	      0.0000000	      0.0000000
      0.0000000	      0.0000000	      0.0000000
      0.0000000	      0.0000000	      0.0000000
      0.0000000	      0.0000000	      0.0000000
      0.0000000	      0.0000000	      0.0000000
      0.0000000	      0.0000000	      0.0000000
      0.0000000	      0.0000000	      0.0000000
      0.0000000	      0.0000000	      0.0000000
      0.0000000	      0.0000000	      0.0000000
      0.0000000	      0.0000000	      0.0000000
      0.0000000	      0.0000000	      0.0000000
      0.0000000	      0.0000000	      0.0000000
      0.0000000	      0.0000000	      0.0000000
      0.0000000	      0.0000000	      0.0000000
      0.0000000	      0.0000000	      0.0000000
      0.0000000	      0.0000000	      0.0000000
      0.0000000	      0.0000000	      0.0000000
      0.0000000	      0.0000000	      0.0000000
      0.0000000	      0.0000000	      0.0000000
      0.0000000	      0.0000000	      0.0000000
      0.0000000	      0.0000000	      0.0000000
      0.0000000	      0.0000000	      0.0000000
      0.0000000	      0.0000000	      0.0000000
      0.0000000	      0.0000000	      0.0000000
      0.0000000	      0.0000000	      0.0000000
      0.0000000	      0.0000000	      0.0000000
      0.0000000	      0.0000000	      0.0000000
      0.0000000	      0.0000000	      0.0000000
      0.0000000	      0.0000000	      0.0000000
      0.0000000	      0.0000000	      0.0000000
      0.0000000	      0.0000000	      0.0000000
      0.0000000	      0.0000000	      0.0000000
      0.0000000	      0.0000000	      0.0000000
      0.0000000	      0.0000000	      0.0000000
      0.0000000	      0.0000000	      0.0000000
      0.0000000	      0.0000000	      0.0000000
      0.0000000	      0.0000000	      0.0000000
      0.0000000	      0.0000000	      0.0000000
      0.0000000	      0.0000000	      0.0000000
      0.0000000	      0.0000000	      0.0000000
      0.0000000	      0.0000000	      0.0000000
      0.0000000	      0.0000000	      0.0000000
      0.0000000	      0.0000000	      0.0000000
      0.0000000	      0.0000000	      0.0000000
      0.0000000	      0.0000000	      0.0000000
      0.0000000	      0.0000000	      0.0000000
      0.0000000	      0.0000000	      0.0000000
      0.0000000	      0.0000000	      0.0000000
      0.0000000	      0.0000000	      0.0000000
      0.0000000	      0.0000000	      0.0000000
      0.0000000	      0.0000000	      0.0000000
      0.0000000	      0.0000000	      0.0000000
      0.0000000	      0.0000000	      0.0000000
      0.0000000	      0.0000000	      0.0000000
      0.0000000	      0.0000000	      0.0000000
      0.0000000	      0.0000000	      0.0000000
      0.0000000	      0.0000000	      0.0000000
      0.0000000	      0.0000000	      0.0000000
      0.0000000	      0.0000000	      0.0000000
      0.0000000	      0.0000000	      0.0000000
      0.0000000	      0.0000000	      0.0000000
      0.0000000	      0.0000000	      0.0000000
      0.0000000	      0.0000000	      0.0000000
      0.0000000	      0.0000000	      0.0000000
      0.0000000	      0.0000000	      0.0000000
      0.0000000	      0.0000000	      0.0000000
      0.0000000	      0.0000000	      0.0000000
      0.0000000	      0.0000000	      0.0000000
      0.0000000	      0.0000000	      0.0000000
      0.0000000	      0.0000000	      0.0000000
      0.0000000	      0.0000000	      0.0000000
      0.0000000	      0.0000000	      0.0000000
      0.0000000	      0.0000000	      0.0000000
      0.0000000	      0.0000000	      0.0000000
      0.0000000	      0.0000000	      0.0000000
      0.0000000	      0.0000000	      0.0000000
      0.0000000	      0.0000000	      0.0000000
      0.0000000	      0.0000000	      0.0000000
      0.0000000	      0.0000000	      0.0000000
      0.0000000	      0.0000000	      0.0000000
      0.0000000	      0.0000000	      0.0000000
      0.0000000	      0.0000000	      0.0000000
      0.0000000	      0.0000000	      0.0000000
      0.0000000	      0.0000000	      0.0000000
      0.0000000	      0.0000000	      0.0000000
      0.0000000	      0.0000000	      0.0000000
      0.0000000	      0.0000000	      0.0000000
      0.0000000	      0.0000000	      0.0000000
      0.0000000	      0.0000000	      0.0000000
      0.0000000	      0.0000000	      0.0000000
      0.0000000	      0.0000000	      0.0000000
      0.0003401	      0.0003107	      0.0000000
      0.0002810	      0.0005257	      0.0000000
     -0.0001185	      0.0006969	      0.0000000
     -0.0006629	      0.0008194	      0.0000000
     -0.0014032	      0.0008997	      0.0000000
     -0.0022092	      0.0009490	      0.0000000
     -0.0031018	      0.0009733	      0.0000000
     -0.0040066	      0.0009836	      0.0000000
     -0.0049396	      0.0009835	      0.0000000
     -0.0058627	      0.0009793	      0.0000000
     -0.0067896	      0.0009721	      0.0000000
     -0.0077016	      0.0009645	      0.0000000
     -0.0086087	      0.0009562	      0.0000000
     -0.0095014	      0.0009481	      0.0000000
     -0.0103858	      0.0009397	      0.0000000
     -0.0112566	      0.0009313	      0.0000000
     -0.0121171	      0.0009225	      0.0000000
     -0.0129639	      0.0009133	      0.0000000
     -0.0137988	      0.0009037	      0.0000000
     -0.0146195	      0.0008936	      0.0000000
     -0.0154264	      0.0008830	      0.0000000
     -0.0162182	      0.0008718	      0.0000000
     -0.0169947	      0.0008601	      0.0000000
     -0.0177547	      0.0008478	      0.0000000
     -0.0184979	      0.0008350	      0.0000000
     -0.0192234	      0.0008216	      0.0000000
     -0.0199306	      0.0008077	      0.0000000
     -0.0206186	      0.0007932	      0.0000000
     -0.0212869	      0.0007782	      0.0000000
     -0.0219347	      0.0007626	      0.0000000
     -0.0225614	      0.0007465	      0.0000000
     -0.0231663	      0.0007298	      0.0000000
     -0.0237486	      0.0007127	      0.0000000
     -0.0243078	      0.0006950	      0.0000000
     -0.0248433	      0.0006768	      0.0000000
     -0.0253543	      0.0006581	      0.0000000
     -0.0258402	      0.0006389	      0.0000000
     -0.0263005	      0.0006193	      0.0000000
     -0.0267345	      0.0005992	      0.0000000
     -0.0271417	      0.0005786	      0.0000000
     -0.0275216	      0.0005576	      0.0000000
     -0.0278735	      0.0005362	      0.0000000
     -0.0281969	      0.0005144	      0.0000000
     -0.0284914	      0.0004921	      0.0000000
     -0.0287563	      0.0004695	      0.0000000
     -0.0289914	      0.0004466	      0.0000000
     -0.0291961	      0.0004233	      0.0000000
     -0.0293699	      0.0003996	      0.0000000
     -0.0295126	      0.0003757	      0.0000000
     -0.0296236	      0.0003514	      0.0000000
     -0.0297027	      0.0003269	      0.0000000
     -0.0297496	      0.0003022	      0.0000000
     -0.0297639	      0.0002773	      0.0000000
     -0.0297454	      0.0002522	      0.0000000
     -0.0296939	      0.0002269	      0.0000000
     -0.0296092	      0.0002015	      0.0000000
     -0.0294911	      0.0001760	      0.0000000
     -0.0293395	      0.0001504	      0.0000000
     -0.0291543	      0.0001247	      0.0000000
     -0.0289353	      0.0000990	      0.0000000
     -0.0286826	      0.0000733	      0.0000000
     -0.0283961	      0.0000476	      0.0000000
     -0.0280760	      0.0000220	      0.0000000
     -0.0277224	     -0.0000035	      0.0000000
     -0.0273354	     -0.0000289	      0.0000000
     -0.0269153	     -0.0000540	      0.0000000
     -0.0264622	     -0.0000789	      0.0000000
     -0.0259766	     -0.0001036	      0.0000000
     -0.0254587	     -0.0001279	      0.0000000
     -0.0249091	     -0.0001519	      0.0000000
     -0.0243280	     -0.0001755	      0.0000000
     -0.0237161	     -0.0001987	      0.0000000
     -0.0230739	     -0.0002214	      0.0000000
     -0.0224020	     -0.0002436	      0.0000000
     -0.0217011	     -0.0002653	      0.0000000
     -0.0209719	     -0.0002864	      0.0000000
     -0.0202151	     -0.0003069	      0.0000000
     -0.0194316	     -0.0003267	      0.0000000
     -0.0186222	     -0.0003458	      0.0000000
     -0.0177880	     -0.0003641	      0.0000000
     -0.0169295	     -0.0003817	      0.0000000
     -0.0160484	     -0.0003985	      0.0000000
     -0.0151449	     -0.0004146	      0.0000000
     -0.0142210	     -0.0004297	      0.0000000
     -0.0132766	     -0.0004442	      0.0000000
     -0.0123144	     -0.0004577	      0.0000000
     -0.0113333	     -0.0004706	      0.0000000
     -0.0103376	     -0.0004824	      0.0000000
     -0.0093249	     -0.0004935	      0.0000000
     -0.0083022	     -0.0005029	      0.0000000
     -0.0072661	     -0.0005105	      0.0000000
     -0.0062298	     -0.0005137	      0.0000000
     -0.0051909	     -0.0005111	      0.0000000
     -0.0041757	     -0.0004962	      0.0000000
     -0.0031875	     -0.0004658	      0.0000000
     -0.0022752	     -0.0004077	      0.0000000
     -0.0014537	     -0.0003208	      0.0000000
     -0.0007950	     -0.0001912	      0.0000000
     -0.0003189	     -0.0000485	      0.0000000
     -0.0000671	      0.0000838	      0.0000000
      0.0000000	      0.0000000	      0.0000000
      0.0000000	      0.0000000	      0.0000000
      0.0002833	      0.0005690	      0.0000000
      0.0000264	      0.0011176	      0.0000000
     -0.0006988	      0.0015823	      0.0000000
     -0.0016914	      0.0019427	      0.0000000
     -0.0029862	      0.0021921	      0.0000000
     -0.0044170	      0.0023554	      0.0000000
     -0.0059907	      0.0024469	      0.0000000
     -0.0076057	      0.0024931	      0.0000000
     -0.0092699	      0.0025067	      0.0000000
     -0.0109303	      0.0025034	      0.0000000
     -0.0125976	      0.0024888	      0.0000000
     -0.0142459	      0.0024698	      0.0000000
     -0.0158846	      0.0024475	      0.0000000
     -0.0175009	      0.0024242	      0.0000000
     -0.0191012	      0.0023996	      0.0000000
     -0.0206781	      0.0023741	      0.0000000
     -0.0222353	      0.0023474	      0.0000000
     -0.0237682	      0.0023196	      0.0000000
     -0.0252783	      0.0022903	      0.0000000
     -0.0267624	      0.0022596	      0.0000000
     -0.0282208	      0.0022273	      0.0000000
     -0.0296512	      0.0021935	      0.0000000
     -0.0310530	      0.0021581	      0.0000000
     -0.0324245	      0.0021210	      0.0000000
     -0.0337647	      0.0020823	      0.0000000
     -0.0350720	      0.0020420	      0.0000000
     -0.0363455	      0.0020001	      0.0000000
     -0.0375836	      0.0019566	      0.0000000
     -0.0387853	      0.0019115	      0.0000000
     -0.0399492	      0.0018649	      0.0000000
     -0.0410742	      0.0018167	      0.0000000
     -0.0421589	      0.0017669	      0.0000000
     -0.0432023	      0.0017157	      0.0000000
     -0.0442032	      0.0016630	      0.0000000
     -0.0451604	      0.0016088	      0.0000000
     -0.0460729	      0.0015533	      0.0000000
     -0.0469395	      0.0014963	      0.0000000
     -0.0477592	      0.0014380	      0.0000000
     -0.0485310	      0.0013784	      0.0000000
     -0.0492538	      0.0013174	      0.0000000
     -0.0499267	      0.0012553	      0.0000000
     -0.0505488	      0.0011919	      0.0000000
     -0.0511191	      0.0011274	      0.0000000
     -0.0516368	      0.0010617	      0.0000000
     -0.0521011	      0.0009950	      0.0000000
     -0.0525111	      0.0009273	      0.0000000
     -0.0528661	      0.0008586	      0.0000000
     -0.0531655	      0.0007889	      0.0000000
     -0.0534084	      0.0007184	      0.0000000
     -0.0535944	      0.0006472	      0.0000000
     -0.0537228	      0.0005752	      0.0000000
     -0.0537931	      0.0005025	      0.0000000
     -0.0538049	      0.0004293	      0.0000000
     -0.0537578	      0.0003555	      0.0000000
     -0.0536513	      0.0002814	      0.0000000
     -0.0534854	      0.0002069	      0.0000000
     -0.0532596	      0.0001320	      0.0000000
     -0.0529737	      0.0000569	      0.0000000
     -0.0526276	     -0.0000185	      0.0000000
     -0.0522213	     -0.0000938	      0.0000000
     -0.0517548	     -0.0001692	      0.0000000
     -0.0512283	     -0.0002444	      0.0000000
     -0.0506418	     -0.0003193	      0.0000000
     -0.0499957	     -0.0003939	      0.0000000
     -0.0492904	     -0.0004680	      0.0000000
     -0.0485263	     -0.0005415	      0.0000000
     -0.0477038	     -0.0006144	      0.0000000
     -0.0468235	     -0.0006865	      0.0000000
     -0.0458862	     -0.0007577	      0.0000000
     -0.0448925	     -0.0008278	      0.0000000
     -0.0438434	     -0.0008969	      0.0000000
     -0.0427397	     -0.0009647	      0.0000000
     -0.0415824	     -0.0010312	      0.0000000
     -0.0403728	     -0.0010962	      0.0000000
     -0.0391119	     -0.0011597	      0.0000000
     -0.0378011	     -0.0012214	      0.0000000
     -0.0364417	     -0.0012814	      0.0000000
     -0.0350353	     -0.0013394	      0.0000000
     -0.0335832	     -0.0013954	      0.0000000
     -0.0320873	     -0.0014493	      0.0000000
     -0.0305489	     -0.0015010	      0.0000000
     -0.0289704	     -0.0015503	      0.0000000
     -0.0273528	     -0.0015974	      0.0000000
     -0.0256992	     -0.0016419	      0.0000000
     -0.0240099	     -0.0016841	      0.0000000
     -0.0222891	     -0.0017236	      0.0000000
     -0.0205363	     -0.0017605	      0.0000000
     -0.0187576	     -0.0017942	      0.0000000
     -0.0169515	     -0.0018243	      0.0000000
     -0.0151282	     -0.0018485	      0.0000000
     -0.0132861	     -0.0018650	      0.0000000
     -0.0114449	     -0.0018671	      0.0000000
     -0.0096063	     -0.0018493	      0.0000000
     -0.0078093	     -0.0017959	      0.0000000
     -0.0060653	     -0.0016968	      0.0000000
     -0.0044453	     -0.0015249	      0.0000000
     -0.0029739	     -0.0012762	      0.0000000
     -0.0017563	     -0.0009231	      0.0000000
     -0.0008117	     -0.0005228	      0.0000000
     -0.0002397	     -0.0001064	      0.0000000
      0.0000000	      0.0000000	      0.0000000
      0.0000000	      0.0000000	      0.0000000
      0.0001751	      0.0009270	      0.0000000
     -0.0002862	      0.0019504	      0.0000000
     -0.0013183	      0.0028352	      0.0000000
     -0.0026888	      0.0035425	      0.0000000
     -0.0044287	      0.0040459	      0.0000000
     -0.0063500	      0.0043835	      0.0000000
     -0.0084509	      0.0045831	      0.0000000
     -0.0106146	      0.0046892	      0.0000000
     -0.0128424	      0.0047293	      0.0000000
     -0.0150726	      0.0047310	      0.0000000
     -0.0173123	      0.0047083	      0.0000000
     -0.0195314	      0.0046734	      0.0000000
     -0.0217376	      0.0046308	      0.0000000
     -0.0239161	      0.0045843	      0.0000000
     -0.0260724	      0.0045346	      0.0000000
     -0.0281984	      0.0044825	      0.0000000
     -0.0302969	      0.0044277	      0.0000000
     -0.0323627	      0.0043704	      0.0000000
     -0.0343970	      0.0043100	      0.0000000
     -0.0363959	      0.0042468	      0.0000000
     -0.0383593	      0.0041803	      0.0000000
     -0.0402843	      0.0041107	      0.0000000
     -0.0421700	      0.0040378	      0.0000000
     -0.0440141	      0.0039617	      0.0000000
     -0.0458152	      0.0038823	      0.0000000
     -0.0475713	      0.0037997	      0.0000000
     -0.0492809	      0.0037138	      0.0000000
     -0.0509421	      0.0036248	      0.0000000
     -0.0525534	      0.0035326	      0.0000000
     -0.0541130	      0.0034373	      0.0000000
     -0.0556193	      0.0033389	      0.0000000
     -0.0570708	      0.0032375	      0.0000000
     -0.0584659	      0.0031332	      0.0000000
     -0.0598030	      0.0030259	      0.0000000
     -0.0610806	      0.0029157	      0.0000000
     -0.0622974	      0.0028028	      0.0000000
     -0.0634517	      0.0026871	      0.0000000
     -0.0645424	      0.0025688	      0.0000000
     -0.0655680	      0.0024479	      0.0000000
     -0.0665272	      0.0023245	      0.0000000
     -0.0674188	      0.0021987	      0.0000000
     -0.0682416	      0.0020705	      0.0000000
     -0.0689944	      0.0019401	      0.0000000
     -0.0696761	      0.0018075	      0.0000000
     -0.0702857	      0.0016728	      0.0000000
     -0.0708221	      0.0015362	      0.0000000
     -0.0712844	      0.0013977	      0.0000000
     -0.0716717	      0.0012575	      0.0000000
     -0.0719831	      0.0011156	      0.0000000
     -0.0722180	      0.0009722	      0.0000000
     -0.0723755	      0.0008274	      0.0000000
     -0.0724551	      0.0006814	      0.0000000
     -0.0724562	      0.0005343	      0.0000000
     -0.0723783	      0.0003863	      0.0000000
     -0.0722210	      0.0002375	      0.0000000
     -0.0719840	      0.0000880	      0.0000000
     -0.0716668	     -0.0000622	      0.0000000
     -0.0712694	     -0.0002128	      0.0000000
     -0.0707917	     -0.0003636	      0.0000000
     -0.0702336	     -0.0005144	      0.0000000
     -0.0695955	     -0.0006651	      0.0000000
     -0.0688773	     -0.0008153	      0.0000000
     -0.0680796	     -0.0009650	      0.0000000
     -0.0672026	     -0.0011139	      0.0000000
     -0.0662469	     -0.0012618	      0.0000000
     -0.0652131	     -0.0014086	      0.0000000
     -0.0641019	     -0.0015539	      0.0000000
     -0.0629141	     -0.0016977	      0.0000000
     -0.0616507	     -0.0018396	      0.0000000
     -0.0603127	     -0.0019795	      0.0000000
     -0.0589012	     -0.0021171	      0.0000000
     -0.0574176	     -0.0022523	      0.0000000
     -0.0558632	     -0.0023848	      0.0000000
     -0.0542394	     -0.0025143	      0.0000000
     -0.0525479	     -0.0026407	      0.0000000
     -0.0507906	     -0.0027637	      0.0000000
     -0.0489690	     -0.0028831	      0.0000000
     -0.0470853	     -0.0029988	      0.0000000
     -0.0451413	     -0.0031104	      0.0000000
     -0.0431396	     -0.0032177	      0.0000000
     -0.0410819	     -0.0033208	      0.0000000
     -0.0389712	     -0.0034192	      0.0000000
     -0.0368092	     -0.0035129	      0.0000000
     -0.0345995	     -0.0036017	      0.0000000
     -0.0323432	     -0.0036856	      0.0000000
     -0.0300452	     -0.0037641	      0.0000000
     -0.0277059	     -0.0038370	      0.0000000
     -0.0253325	     -0.0039030	      0.0000000
     -0.0229244	     -0.0039609	      0.0000000
     -0.0204940	     -0.0040062	      0.0000000
     -0.0180412	     -0.0040343	      0.0000000
     -0.0155897	     -0.0040329	      0.0000000
     -0.0131441	     -0.0039896	      0.0000000
     -0.0107509	     -0.0038777	      0.0000000
     -0.0084262	     -0.0036756	      0.0000000
     -0.0062548	     -0.0033405	      0.0000000
     -0.0042654	     -0.0028596	      0.0000000
     -0.0025894	     -0.0021961	      0.0000000
     -0.0012447	     -0.0014193	      0.0000000
     -0.0003962	     -0.0005729	      0.0000000
      0.0000000	      0.0000000	      0.0000000
      0.0000000	      0.0000000	      0.0000000
      0.0000503	      0.0014898	      0.0000000
     -0.0006093	      0.0030526	      0.0000000
     -0.0019088	      0.0044059	      0.0000000
     -0.0035832	      0.0054940	      0.0000000
     -0.0056638	      0.0062813	      0.0000000
     -0.0079506	      0.0068171	      0.0000000
     -0.0104392	      0.0071433	      0.0000000
     -0.0130047	      0.0073228	      0.0000000
     -0.0156455	      0.0073980	      0.0000000
     -0.0182943	      0.0074097	      0.0000000
     -0.0209558	      0.0073807	      0.0000000
     -0.0235967	      0.0073294	      0.0000000
     -0.0262235	      0.0072641	      0.0000000
     -0.0288194	      0.0071909	      0.0000000
     -0.0313891	      0.0071115	      0.0000000
     -0.0339234	      0.0070274	      0.0000000
     -0.0364246	      0.0069385	      0.0000000
     -0.0388870	      0.0068451	      0.0000000
     -0.0413111	      0.0067466	      0.0000000
     -0.0436927	      0.0066432	      0.0000000
     -0.0460313	      0.0065347	      0.0000000
     -0.0483235	      0.0064210	      0.0000000
     -0.0505682	      0.0063020	      0.0000000
     -0.0527625	      0.0061778	      0.0000000
     -0.0549049	      0.0060483	      0.0000000
     -0.0569928	      0.0059136	      0.0000000
     -0.0590246	      0.0057738	      0.0000000
     -0.0609980	      0.0056288	      0.0000000
     -0.0629111	      0.0054788	      0.0000000
     -0.0647620	      0.0053238	      0.0000000
     -0.0665486	      0.0051639	      0.0000000
     -0.0682692	      0.0049992	      0.0000000
     -0.0699219	      0.0048298	      0.0000000
     -0.0715048	      0.0046558	      0.0000000
     -0.0730163	      0.0044772	      0.0000000
     -0.0744547	      0.0042942	      0.0000000
     -0.0758182	      0.0041070	      0.0000000
     -0.0771052	      0.0039155	      0.0000000
     -0.0783143	      0.0037200	      0.0000000
     -0.0794439	      0.0035205	      0.0000000
     -0.0804926	      0.0033173	      0.0000000
     -0.0814590	      0.0031104	      0.0000000
     -0.0823417	      0.0029000	      0.0000000
     -0.0831395	      0.0026862	      0.0000000
     -0.0838511	      0.0024692	      0.0000000
     -0.0844756	      0.0022492	      0.0000000
     -0.0850117	      0.0020263	      0.0000000
     -0.0854584	      0.0018006	      0.0000000
     -0.0858149	      0.0015725	      0.0000000
     -0.0860803	      0.0013421	      0.0000000
     -0.0862538	      0.0011096	      0.0000000
     -0.0863346	      0.0008751	      0.0000000
     -0.0863223	      0.0006390	      0.0000000
     -0.0862162	      0.0004015	      0.0000000
     -0.0860158	      0.0001628	      0.0000000
     -0.0857209	     -0.0000769	      0.0000000
     -0.0853310	     -0.0003176	      0.0000000
     -0.0848462	     -0.0005587	      0.0000000
     -0.0842664	     -0.0008000	      0.0000000
     -0.0835917	     -0.0010412	      0.0000000
     -0.0828224	     -0.0012820	      0.0000000
     -0.0819587	     -0.0015220	      0.0000000
     -0.0810010	     -0.0017611	      0.0000000
     -0.0799500	     -0.0019988	      0.0000000
     -0.0788061	     -0.0022349	      0.0000000
     -0.0775702	     -0.0024690	      0.0000000
     -0.0762432	     -0.0027008	      0.0000000
     -0.0748260	     -0.0029300	      0.0000000
     -0.0733198	     -0.0031563	      0.0000000
     -0.0717259	     -0.0033793	      0.0000000
     -0.0700456	     -0.0035986	      0.0000000
     -0.0682805	     -0.0038139	      0.0000000
     -0.0664321	     -0.0040249	      0.0000000
     -0.0645024	     -0.0042312	      0.0000000
     -0.0624931	     -0.0044324	      0.0000000
     -0.0604065	     -0.0046282	      0.0000000
     -0.0582445	     -0.0048184	      0.0000000
     -0.0560096	     -0.0050024	      0.0000000
     -0.0537040	     -0.0051800	      0.0000000
     -0.0513307	     -0.0053509	      0.0000000
     -0.0488918	     -0.0055148	      0.0000000
     -0.0463908	     -0.0056714	      0.0000000
     -0.0438297	     -0.0058204	      0.0000000
     -0.0412128	     -0.0059616	      0.0000000
     -0.0385415	     -0.0060947	      0.0000000
     -0.0358217	     -0.0062189	      0.0000000
     -0.0330540	     -0.0063339	      0.0000000
     -0.0302467	     -0.0064373	      0.0000000
     -0.0274001	     -0.0065268	      0.0000000
     -0.0245280	     -0.0065957	      0.0000000
     -0.0216314	     -0.0066360	      0.0000000
     -0.0187368	     -0.0066295	      0.0000000
     -0.0158497	     -0.0065565	      0.0000000
     -0.0130220	     -0.0063787	      0.0000000
     -0.0102698	     -0.0060622	      0.0000000
     -0.0076877	     -0.0055483	      0.0000000
     -0.0053029	     -0.0048113	      0.0000000
     -0.0032684	     -0.0038024	      0.0000000
     -0.0016002	     -0.0025865	      0.0000000
     -0.0005230	     -0.0012084	      0.0000000
      0.0000000	      0.0000000	      0.0000000
      0.0000000	      0.0000000	      0.0000000
     -0.0000381	      0.0021751	      0.0000000
     -0.0008502	      0.0043536	      0.0000000
     -0.0023632	      0.0062292	      0.0000000
     -0.0042727	      0.0077359	      0.0000000
     -0.0066131	      0.0088364	      0.0000000
     -0.0091708	      0.0095924	      0.0000000
     -0.0119430	      0.0100617	      0.0000000
     -0.0147988	      0.0103258	      0.0000000
     -0.0177361	      0.0104435	      0.0000000
     -0.0206843	      0.0104691	      0.0000000
     -0.0236474	      0.0104351	      0.0000000
     -0.0265898	      0.0103667	      0.0000000
     -0.0295172	      0.0102765	      0.0000000
     -0.0324115	      0.0101731	      0.0000000
     -0.0352770	      0.0100597	      0.0000000
     -0.0381035	      0.0099386	      0.0000000
     -0.0408930	      0.0098100	      0.0000000
     -0.0436392	      0.0096743	      0.0000000
     -0.0463424	      0.0095312	      0.0000000
     -0.0489978	      0.0093808	      0.0000000
     -0.0516047	      0.0092228	      0.0000000
     -0.0541594	      0.0090573	      0.0000000
     -0.0566605	      0.0088841	      0.0000000
     -0.0591048	      0.0087034	      0.0000000
     -0.0614906	      0.0085152	      0.0000000
     -0.0638150	      0.0083194	      0.0000000
     -0.0660762	      0.0081162	      0.0000000
     -0.0682716	      0.0079057	      0.0000000
     -0.0703992	      0.0076880	      0.0000000
     -0.0724567	      0.0074631	      0.0000000
     -0.0744421	      0.0072312	      0.0000000
     -0.0763531	      0.0069925	      0.0000000
     -0.0781879	      0.0067471	      0.0000000
     -0.0799444	      0.0064951	      0.0000000
     -0.0816207	      0.0062367	      0.0000000
     -0.0832149	      0.0059720	      0.0000000
     -0.0847252	      0.0057012	      0.0000000
     -0.0861499	      0.0054246	      0.0000000
     -0.0874873	      0.0051421	      0.0000000
     -0.0887357	      0.0048542	      0.0000000
     -0.0898935	      0.0045609	      0.0000000
     -0.0909593	      0.0042625	      0.0000000
     -0.0919317	      0.0039591	      0.0000000
     -0.0928092	      0.0036511	      0.0000000
     -0.0935906	      0.0033385	      0.0000000
     -0.0942746	      0.0030218	      0.0000000
     -0.0948601	      0.0027010	      0.0000000
     -0.0953461	      0.0023765	      0.0000000
     -0.0957314	      0.0020485	      0.0000000
     -0.0960154	      0.0017173	      0.0000000
     -0.0961970	      0.0013833	      0.0000000
     -0.0962756	      0.0010466	      0.0000000
     -0.0962506	      0.0007077	      0.0000000
     -0.0961213	      0.0003668	      0.0000000
     -0.0958873	      0.0000242	      0.0000000
     -0.0955482	     -0.0003197	      0.0000000
     -0.0951038	     -0.0006646	      0.0000000
     -0.0945541	     -0.0010100	      0.0000000
     -0.0938992	     -0.0013555	      0.0000000
     -0.0931391	     -0.0017007	      0.0000000
     -0.0922742	     -0.0020452	      0.0000000
     -0.0913048	     -0.0023886	      0.0000000
     -0.0902314	     -0.0027304	      0.0000000
     -0.0890546	     -0.0030702	      0.0000000
     -0.0877752	     -0.0034076	      0.0000000
     -0.0863940	     -0.0037421	      0.0000000
     -0.0849120	     -0.0040732	      0.0000000
     -0.0833304	     -0.0044006	      0.0000000
     -0.0816504	     -0.0047236	      0.0000000
     -0.0798735	     -0.0050419	      0.0000000
     -0.0780012	     -0.0053549	      0.0000000
     -0.0760352	     -0.0056622	      0.0000000
     -0.0739774	     -0.0059632	      0.0000000
     -0.0718297	     -0.0062574	      0.0000000
     -0.0695943	     -0.0065445	      0.0000000
     -0.0672735	     -0.0068238	      0.0000000
     -0.0648696	     -0.0070949	      0.0000000
     -0.0623853	     -0.0073572	      0.0000000
     -0.0598231	     -0.0076105	      0.0000000
     -0.0571861	     -0.0078541	      0.0000000
     -0.0544769	     -0.0080878	      0.0000000
     -0.0516993	     -0.0083109	      0.0000000
     -0.0488554	     -0.0085232	      0.0000000
     -0.0459501	     -0.0087242	      0.0000000
     -0.0429852	     -0.0089135	      0.0000000
     -0.0399668	     -0.0090899	      0.0000000
     -0.0368960	     -0.0092525	      0.0000000
     -0.0337820	     -0.0093983	      0.0000000
     -0.0306250	     -0.0095234	      0.0000000
     -0.0274403	     -0.0096186	      0.0000000
     -0.0242289	     -0.0096720	      0.0000000
     -0.0210193	     -0.0096597	      0.0000000
     -0.0178168	     -0.0095534	      0.0000000
     -0.0146767	     -0.0093034	      0.0000000
     -0.0116141	     -0.0088615	      0.0000000
     -0.0087313	     -0.0081528	      0.0000000
     -0.0060535	     -0.0071341	      0.0000000
     -0.0037532	     -0.0057426	      0.0000000
     -0.0018458	     -0.0040247	      0.0000000
     -0.0006056	     -0.0020180	      0.0000000
      0.0000000	      0.0000000	      0.0000000
      0.0000000	      0.0000000	      0.0000000
     -0.0001026	      0.0029755	      0.0000000
     -0.0010313	      0.0058219	      0.0000000
     -0.0027065	      0.0082480	      0.0000000
     -0.0047914	      0.0101847	      0.0000000
     -0.0073211	      0.0116051	      0.0000000
     -0.0100719	      0.0125848	      0.0000000
     -0.0130429	      0.0132004	      0.0000000