# vtk DataFile Version 2.0
vw
ASCII
DATASET STRUCTURED_POINTS
DIMENSIONS  102  102    1
ORIGIN      0.0000000      0.0000000      0.0000000
SPACING      0.0100000      0.0100000      0.0100000
POINT_DATA  10404
VECTORS velocity float
      0.0000000	      0.0000000	      0.0000000
      0.0000000	      0.0000000	      0.0000000
      0.0000000	      0.0000000	      0.0000000
      0.0000000	      0.0000000	      0.0000000
      0.0000000	      0.0000000	      0.0000000
      0.0000000	      0.0000000	      0.0000000
      0.0000000	      0.0000000	      0.0000000
      0.0000000	      0.0000000	      0.0000000
      0.0000000	      0.0000000	      0.0000000
      0.0000000	      0.0000000	      0.0000000
      0.0000000	      0.0000000	      0.0000000
      0.0000000	      0.0000000	      0.0000000
      0.0000000	      0.0000000	      0.0000000
      0.0000000	      0.0000000	      0.0000000
      0.0000000	      0.0000000	      0.0000000
      0.0000000	      0.0000000	      0.0000000
      0.0000000	      0.0000000	      0.0000000
      0.0000000	      0.0000000	      0.0000000
      0.0000000	      0.0000000	      0.0000000
      0.0000000	      0.0000000	      0.0000000
      0.0000000	      0.0000000	      0.0000000
      0.0000000	      0.0000000	      0.0000000
      0.0000000	      0.0000000	      0.0000000
      0.0000000	      0.0000000	      0.0000000
      0.0000000	      0.0000000	      0.0000000
      0.0000000	      0.0000000	      0.0000000
      0.0000000	      0.0000000	      0.0000000
      0.0000000	      0.0000000	      0.0000000
      0.0000000	      0.0000000	      0.0000000
      0.0000000	      0.0000000	      0.0000000
      0.0000000	      0.0000000	      0.0000000
      0.0000000	      0.0000000	      0.0000000
      0.0000000	      0.0000000	      0.0000000
      0.0000000	      0.0000000	      0.0000000
      0.0000000	      0.0000000	      0.0000000
      0.0000000	      0.0000000	      0.0000000
      0.0000000	      0.0000000	      0.0000000
      0.0000000	      0.0000000	      0.0000000
      0.0000000	      0.0000000	      0.0000000
      0.0000000	      0.0000000	      0.0000000
      0.0000000	      0.0000000	      0.0000000
      0.0000000	      0.0000000	      0.0000000
      0.0000000	      0.0000000	      0.0000000
      0.0000000	      0.0000000	      0.0000000
      0.0000000	      0.0000000	      0.0000000
      0.0000000	      0.0000000	      0.0000000
      0.0000000	      0.0000000	      0.0000000
      0.0000000	      0.0000000	      0.0000000
      0.0000000	      0.0000000	      0.0000000
      0.0000000	      0.0000000	      0.0000000
      0.0000000	      0.0000000	      0.0000000
      0.0000000	      0.0000000	      0.0000000
      0.0000000	      0.0000000	      0.0000000
      0.0000000	      0.0000000	      0.0000000
      0.0000000	      0.0000000	      0.0000000
      0.0000000	      0.0000000	      0.0000000
      0.0000000	      0.0000000	      0.0000000
      0.0000000	      0.0000000	      0.0000000
      0.0000000	      0.0000000	      0.0000000
      0.0000000	      0.0000000	      0.0000000
      0.0000000	      0.0000000	      0.0000000
      0.0000000	      0.0000000	      0.0000000
      0.0000000	      0.0000000	      0.0000000
      0.0000000	      0.0000000	      0.0000000
      0.0000000	      0.0000000	      0.0000000
      0.0000000	      0.0000000	      0.0000000
      0.0000000	      0.0000000	      0.0000000
      0.0000000	      0.0000000	      0.0000000
      0.0000000	      0.0000000	      0.0000000
      0.0000000	      0.0000000	      0.0000000
      0.0000000	      0.0000000	      0.0000000
      0.0000000	      0.0000000	      0.0000000
      0.0000000	      0.0000000	      0.0000000
      0.0000000	      0.0000000	      0.0000000
      0.0000000	      0.0000000	      0.0000000
      0.0000000	      0.0000000	      0.0000000
      0.0000000	      0.0000000	      0.0000000
      0.0000000	      0.0000000	      0.0000000
      0.0000000	      0.0000000	      0.0000000
      0.0000000	      0.0000000	      0.0000000
      0.0000000	      0.0000000	      0.0000000
      0.0000000	      0.0000000	      0.0000000
      0.0000000	      0.0000000	      0.0000000
      0.0000000	      0.0000000	      0.0000000
      0.0000000	      0.0000000	      0.0000000
      0.0000000	      0.0000000	      0.0000000
      0.0000000	      0.0000000	      0.0000000
      0.0000000	      0.0000000	      0.0000000
      0.0000000	      0.0000000	      0.0000000
      0.0000000	      0.0000000	      0.0000000
      0.0000000	      0.0000000	      0.0000000
      0.0000000	      0.0000000	      0.0000000
      0.0000000	      0.0000000	      0.0000000
      0.0000000	      0.0000000	      0.0000000
      0.0000000	      0.0000000	      0.0000000
      0.0000000	      0.0000000	      0.0000000
      0.0000000	      0.0000000	      0.0000000
      0.0000000	      0.0000000	      0.0000000
      0.0000000	      0.0000000	      0.0000000
      0.0000000	      0.0000000	      0.0000000
      0.0000000	      0.0000000	      0.0000000
      0.0000000	      0.0000000	      0.0000000
      0.0000000	      0.0000000	      0.0000000
     -0.0002086	     -0.0003391	      0.0000000
     -0.0003390	     -0.0003164	      0.0000000
     -0.0005391	     -0.0002208	      0.0000000
     -0.0009551	     -0.0000863	      0.0000000
     -0.0015305	      0.0000316	      0.0000000
     -0.0022817	      0.0001374	      0.0000000
     -0.0031679	      0.0002208	      0.0000000
     -0.0041745	      0.0002887	      0.0000000
     -0.0052747	      0.0003400	      0.0000000
     -0.0064499	      0.0003794	      0.0000000
     -0.0076830	      0.0004077	      0.0000000
     -0.0089588	      0.0004279	      0.0000000
     -0.0102664	      0.0004411	      0.0000000
     -0.0115950	      0.0004493	      0.0000000
     -0.0129378	      0.0004531	      0.0000000
     -0.0142879	      0.0004538	      0.0000000
     -0.0156413	      0.0004521	      0.0000000
     -0.0169936	      0.0004486	      0.0000000
     -0.0183427	      0.0004437	      0.0000000
     -0.0196860	      0.0004378	      0.0000000
     -0.0210220	      0.0004310	      0.0000000
     -0.0223493	      0.0004236	      0.0000000
     -0.0236667	      0.0004155	      0.0000000
     -0.0249732	      0.0004068	      0.0000000
     -0.0262677	      0.0003974	      0.0000000
     -0.0275492	      0.0003874	      0.0000000
     -0.0288164	      0.0003765	      0.0000000
     -0.0300682	      0.0003648	      0.0000000
     -0.0313030	      0.0003521	      0.0000000
     -0.0325193	      0.0003383	      0.0000000
     -0.0337154	      0.0003233	      0.0000000
     -0.0348893	      0.0003071	      0.0000000
     -0.0360391	      0.0002894	      0.0000000
     -0.0371625	      0.0002703	      0.0000000
     -0.0382571	      0.0002495	      0.0000000
     -0.0393203	      0.0002271	      0.0000000
     -0.0403495	      0.0002028	      0.0000000
     -0.0413419	      0.0001767	      0.0000000
     -0.0422944	      0.0001486	      0.0000000
     -0.0432040	      0.0001185	      0.0000000
     -0.0440675	      0.0000864	      0.0000000
     -0.0448815	      0.0000520	      0.0000000
     -0.0456427	      0.0000155	      0.0000000
     -0.0463477	     -0.0000232	      0.0000000
     -0.0469930	     -0.0000642	      0.0000000
     -0.0475751	     -0.0001073	      0.0000000
     -0.0480906	     -0.0001526	      0.0000000
     -0.0485361	     -0.0002000	      0.0000000
     -0.0489083	     -0.0002494	      0.0000000
     -0.0492041	     -0.0003007	      0.0000000
     -0.0494204	     -0.0003539	      0.0000000
     -0.0495545	     -0.0004088	      0.0000000
     -0.0496035	     -0.0004654	      0.0000000
     -0.0495648	     -0.0005236	      0.0000000
     -0.0494360	     -0.0005833	      0.0000000
     -0.0492150	     -0.0006441	      0.0000000
     -0.0488999	     -0.0007059	      0.0000000
     -0.0484895	     -0.0007683	      0.0000000
     -0.0479827	     -0.0008312	      0.0000000
     -0.0473792	     -0.0008940	      0.0000000
     -0.0466788	     -0.0009567	      0.0000000
     -0.0458821	     -0.0010187	      0.0000000
     -0.0449901	     -0.0010797	      0.0000000
     -0.0440044	     -0.0011395	      0.0000000
     -0.0429271	     -0.0011975	      0.0000000
     -0.0417609	     -0.0012536	      0.0000000
     -0.0405089	     -0.0013072	      0.0000000
     -0.0391749	     -0.0013581	      0.0000000
     -0.0377632	     -0.0014059	      0.0000000
     -0.0362786	     -0.0014504	      0.0000000
     -0.0347265	     -0.0014910	      0.0000000
     -0.0331126	     -0.0015277	      0.0000000
     -0.0314432	     -0.0015600	      0.0000000
     -0.0297252	     -0.0015877	      0.0000000
     -0.0279655	     -0.0016106	      0.0000000
     -0.0261719	     -0.0016284	      0.0000000
     -0.0243524	     -0.0016408	      0.0000000
     -0.0225154	     -0.0016477	      0.0000000
     -0.0206696	     -0.0016488	      0.0000000
     -0.0188244	     -0.0016439	      0.0000000
     -0.0169895	     -0.0016327	      0.0000000
     -0.0151751	     -0.0016149	      0.0000000
     -0.0133916	     -0.0015904	      0.0000000
     -0.0116506	     -0.0015586	      0.0000000
     -0.0099635	     -0.0015194	      0.0000000
     -0.0083430	     -0.0014723	      0.0000000
     -0.0068015	     -0.0014171	      0.0000000
     -0.0053535	     -0.0013532	      0.0000000
     -0.0040121	     -0.0012803	      0.0000000
     -0.0027932	     -0.0011981	      0.0000000
     -0.0017102	     -0.0011065	      0.0000000
     -0.0007798	     -0.0010053	      0.0000000
     -0.0000138	     -0.0008954	      0.0000000
      0.0005724	     -0.0007777	      0.0000000
      0.0009726	     -0.0006554	      0.0000000
      0.0011790	     -0.0005327	      0.0000000
      0.0012001	     -0.0004171	      0.0000000
      0.0010474	     -0.0003203	      0.0000000
      0.0007628	     -0.0002435	      0.0000000
      0.0003830	     -0.0001887	      0.0000000
      0.0000000	      0.0000000	      0.0000000
      0.0000000	      0.0000000	      0.0000000
     -0.0003558	     -0.0003855	      0.0000000
     -0.0007374	     -0.0002190	      0.0000000
     -0.0013252	      0.0000756	      0.0000000
     -0.0022242	      0.0004467	      0.0000000
     -0.0033975	      0.0007858	      0.0000000
     -0.0048497	      0.0010967	      0.0000000
     -0.0065375	      0.0013536	      0.0000000
     -0.0084324	      0.0015684	      0.0000000
     -0.0104972	      0.0017373	      0.0000000
     -0.0126996	      0.0018708	      0.0000000
     -0.0150116	      0.0019709	      0.0000000
     -0.0174063	      0.0020453	      0.0000000
     -0.0198640	      0.0020970	      0.0000000
     -0.0223654	      0.0021315	      0.0000000
     -0.0248973	      0.0021515	      0.0000000
     -0.0274467	      0.0021607	      0.0000000
     -0.0300052	      0.0021610	      0.0000000
     -0.0325645	      0.0021548	      0.0000000
     -0.0351195	      0.0021432	      0.0000000
     -0.0376650	      0.0021278	      0.0000000
     -0.0401978	      0.0021090	      0.0000000
     -0.0427143	      0.0020874	      0.0000000
     -0.0452123	      0.0020635	      0.0000000
     -0.0476892	      0.0020372	      0.0000000
     -0.0501427	      0.0020086	      0.0000000
     -0.0525705	      0.0019775	      0.0000000
     -0.0549702	      0.0019438	      0.0000000
     -0.0573392	      0.0019072	      0.0000000
     -0.0596746	      0.0018673	      0.0000000
     -0.0619735	      0.0018240	      0.0000000
     -0.0642324	      0.0017768	      0.0000000
     -0.0664479	      0.0017254	      0.0000000
     -0.0686160	      0.0016696	      0.0000000
     -0.0707326	      0.0016090	      0.0000000
     -0.0727933	      0.0015432	      0.0000000
     -0.0747932	      0.0014720	      0.0000000
     -0.0767276	      0.0013950	      0.0000000
     -0.0785911	      0.0013121	      0.0000000
     -0.0803783	      0.0012229	      0.0000000
     -0.0820835	      0.0011272	      0.0000000
     -0.0837011	      0.0010248	      0.0000000
     -0.0852248	      0.0009157	      0.0000000
     -0.0866487	      0.0007995	      0.0000000
     -0.0879666	      0.0006763	      0.0000000
     -0.0891721	      0.0005460	      0.0000000
     -0.0902590	      0.0004087	      0.0000000
     -0.0912211	      0.0002644	      0.0000000
     -0.0920523	      0.0001134	      0.0000000
     -0.0927467	     -0.0000441	      0.0000000
     -0.0932984	     -0.0002079	      0.0000000
     -0.0937021	     -0.0003774	      0.0000000
     -0.0939527	     -0.0005527	      0.0000000
     -0.0940453	     -0.0007334	      0.0000000
     -0.0939753	     -0.0009191	      0.0000000
     -0.0937384	     -0.0011093	      0.0000000
     -0.0933311	     -0.0013033	      0.0000000
     -0.0927502	     -0.0015004	      0.0000000
     -0.0919935	     -0.0016997	      0.0000000
     -0.0910593	     -0.0019002	      0.0000000
     -0.0899470	     -0.0021011	      0.0000000
     -0.0886564	     -0.0023012	      0.0000000
     -0.0871887	     -0.0024996	      0.0000000
     -0.0855457	     -0.0026951	      0.0000000
     -0.0837301	     -0.0028867	      0.0000000
     -0.0817459	     -0.0030732	      0.0000000
     -0.0795976	     -0.0032534	      0.0000000
     -0.0772911	     -0.0034264	      0.0000000
     -0.0748329	     -0.0035910	      0.0000000
     -0.0722308	     -0.0037460	      0.0000000
     -0.0694933	     -0.0038905	      0.0000000
     -0.0666297	     -0.0040234	      0.0000000
     -0.0636505	     -0.0041438	      0.0000000
     -0.0605668	     -0.0042507	      0.0000000
     -0.0573907	     -0.0043433	      0.0000000
     -0.0541349	     -0.0044206	      0.0000000
     -0.0508130	     -0.0044818	      0.0000000
     -0.0474395	     -0.0045261	      0.0000000
     -0.0440294	     -0.0045528	      0.0000000
     -0.0405988	     -0.0045609	      0.0000000
     -0.0371644	     -0.0045496	      0.0000000
     -0.0337437	     -0.0045180	      0.0000000
     -0.0303554	     -0.0044652	      0.0000000
     -0.0270188	     -0.0043901	      0.0000000
     -0.0237546	     -0.0042917	      0.0000000
     -0.0205840	     -0.0041689	      0.0000000
     -0.0175301	     -0.0040203	      0.0000000
     -0.0146160	     -0.0038450	      0.0000000
     -0.0118675	     -0.0036416	      0.0000000
     -0.0093090	     -0.0034093	      0.0000000
     -0.0069684	     -0.0031470	      0.0000000
     -0.0048705	     -0.0028552	      0.0000000
     -0.0030436	     -0.0025338	      0.0000000
     -0.0015093	     -0.0021864	      0.0000000
     -0.0002920	     -0.0018162	      0.0000000
      0.0005965	     -0.0014336	      0.0000000
      0.0011465	     -0.0010503	      0.0000000
      0.0013680	     -0.0006896	      0.0000000
      0.0012874	     -0.0003796	      0.0000000
      0.0009553	     -0.0001534	      0.0000000
      0.0004825	     -0.0000489	      0.0000000
      0.0000000	      0.0000000	      0.0000000
      0.0000000	      0.0000000	      0.0000000
     -0.0004996	     -0.0001629	      0.0000000
     -0.0011521	      0.0002744	      0.0000000
     -0.0021526	      0.0008897	      0.0000000
     -0.0035478	      0.0016064	      0.0000000
     -0.0053137	      0.0022770	      0.0000000
     -0.0074342	      0.0028956	      0.0000000
     -0.0098680	      0.0034199	      0.0000000
     -0.0125735	      0.0038638	      0.0000000
     -0.0155092	      0.0042208	      0.0000000
     -0.0186317	      0.0045065	      0.0000000
     -0.0219062	      0.0047254	      0.0000000
     -0.0252972	      0.0048908	      0.0000000
     -0.0287784	      0.0050091	      0.0000000
     -0.0323236	      0.0050904	      0.0000000
     -0.0359143	      0.0051408	      0.0000000
     -0.0395324	      0.0051670	      0.0000000
     -0.0431658	      0.0051738	      0.0000000
     -0.0468026	      0.0051655	      0.0000000
     -0.0504348	      0.0051452	      0.0000000
     -0.0540548	      0.0051155	      0.0000000
     -0.0576573	      0.0050780	      0.0000000
     -0.0612370	      0.0050340	      0.0000000
     -0.0647900	      0.0049842	      0.0000000
     -0.0683123	      0.0049289	      0.0000000
     -0.0718004	      0.0048683	      0.0000000
     -0.0752507	      0.0048021	      0.0000000
     -0.0786594	      0.0047300	      0.0000000
     -0.0820226	      0.0046515	      0.0000000
     -0.0853363	      0.0045661	      0.0000000
     -0.0885959	      0.0044731	      0.0000000
     -0.0917968	      0.0043719	      0.0000000
     -0.0949337	      0.0042618	      0.0000000
     -0.0980013	      0.0041422	      0.0000000
     -0.1009935	      0.0040124	      0.0000000
     -0.1039043	      0.0038718	      0.0000000
     -0.1067270	      0.0037198	      0.0000000
     -0.1094548	      0.0035557	      0.0000000
     -0.1120804	      0.0033790	      0.0000000
     -0.1145963	      0.0031891	      0.0000000
     -0.1169947	      0.0029857	      0.0000000
     -0.1192677	      0.0027684	      0.0000000
     -0.1214069	      0.0025367	      0.0000000
     -0.1234041	      0.0022905	      0.0000000
     -0.1252508	      0.0020296	      0.0000000
     -0.1269384	      0.0017540	      0.0000000
     -0.1284584	      0.0014636	      0.0000000
     -0.1298024	      0.0011588	      0.0000000
     -0.1309621	      0.0008398	      0.0000000
     -0.1319293	      0.0005071	      0.0000000
     -0.1326963	      0.0001613	      0.0000000
     -0.1332556	     -0.0001967	      0.0000000
     -0.1336002	     -0.0005664	      0.0000000
     -0.1337238	     -0.0009474	      0.0000000
     -0.1336201	     -0.0013386	      0.0000000
     -0.1332838	     -0.0017391	      0.0000000
     -0.1327100	     -0.0021474	      0.0000000
     -0.1318948	     -0.0025619	      0.0000000
     -0.1308353	     -0.0029809	      0.0000000
     -0.1295295	     -0.0034025	      0.0000000
     -0.1279765	     -0.0038248	      0.0000000
     -0.1261766	     -0.0042456	      0.0000000
     -0.1241311	     -0.0046628	      0.0000000
     -0.1218428	     -0.0050742	      0.0000000
     -0.1193155	     -0.0054776	      0.0000000
     -0.1165544	     -0.0058706	      0.0000000
     -0.1135659	     -0.0062509	      0.0000000
     -0.1103579	     -0.0066163	      0.0000000
     -0.1069393	     -0.0069645	      0.0000000
     -0.1033205	     -0.0072932	      0.0000000
     -0.0995131	     -0.0076004	      0.0000000
     -0.0955297	     -0.0078838	      0.0000000
     -0.0913843	     -0.0081415	      0.0000000
     -0.0870920	     -0.0083715	      0.0000000
     -0.0826691	     -0.0085719	      0.0000000
     -0.0781328	     -0.0087409	      0.0000000
     -0.0735016	     -0.0088767	      0.0000000
     -0.0687950	     -0.0089774	      0.0000000
     -0.0640335	     -0.0090413	      0.0000000
     -0.0592388	     -0.0090666	      0.0000000
     -0.0544338	     -0.0090514	      0.0000000
     -0.0496424	     -0.0089937	      0.0000000
     -0.0448901	     -0.0088914	      0.0000000
     -0.0402033	     -0.0087422	      0.0000000
     -0.0356103	     -0.0085439	      0.0000000
     -0.0311402	     -0.0082940	      0.0000000
     -0.0268245	     -0.0079897	      0.0000000
     -0.0226949	     -0.0076290	      0.0000000
     -0.0187864	     -0.0072090	      0.0000000
     -0.0151323	     -0.0067282	      0.0000000
     -0.0117703	     -0.0061851	      0.0000000
     -0.0087337	     -0.0055805	      0.0000000
     -0.0060601	     -0.0049154	      0.0000000
     -0.0037783	     -0.0041972	      0.0000000
     -0.0019198	     -0.0034338	      0.0000000
     -0.0005001	     -0.0026460	      0.0000000
      0.0004681	     -0.0018565	      0.0000000
      0.0009980	     -0.0011124	      0.0000000
      0.0011211	     -0.0004627	      0.0000000
      0.0009018	      0.0000053	      0.0000000
      0.0004751	      0.0002093	      0.0000000
      0.0000000	      0.0000000	      0.0000000
      0.0000000	      0.0000000	      0.0000000
     -0.0006365	      0.0002220	      0.0000000
     -0.0015683	      0.0010741	      0.0000000
     -0.0029930	      0.0021124	      0.0000000
     -0.0048863	      0.0032496	      0.0000000
     -0.0072327	      0.0043148	      0.0000000
     -0.0099881	      0.0052954	      0.0000000
     -0.0131165	      0.0061376	      0.0000000
     -0.0165630	      0.0068559	      0.0000000
     -0.0202858	      0.0074416	      0.0000000
     -0.0242328	      0.0079150	      0.0000000
     -0.0283660	      0.0082830	      0.0000000
     -0.0326429	      0.0085643	      0.0000000
     -0.0370331	      0.0087694	      0.0000000
     -0.0415046	      0.0089131	      0.0000000
     -0.0460353	      0.0090050	      0.0000000
     -0.0506027	      0.0090561	      0.0000000
     -0.0551914	      0.0090737	      0.0000000
     -0.0597862	      0.0090650	      0.0000000
     -0.0643768	      0.0090350	      0.0000000
     -0.0689529	      0.0089881	      0.0000000
     -0.0735073	      0.0089271	      0.0000000
     -0.0780331	      0.0088542	      0.0000000
     -0.0825247	      0.0087707	      0.0000000
     -0.0869765	      0.0086773	      0.0000000
     -0.0913838	      0.0085741	      0.0000000
     -0.0957416	      0.0084611	      0.0000000
     -0.1000449	      0.0083377	      0.0000000
     -0.1042886	      0.0082031	      0.0000000
     -0.1084672	      0.0080567	      0.0000000
     -0.1125750	      0.0078974	      0.0000000
     -0.1166059	      0.0077242	      0.0000000
     -0.1205534	      0.0075361	      0.0000000
     -0.1244105	      0.0073320	      0.0000000
     -0.1281699	      0.0071109	      0.0000000
     -0.1318238	      0.0068718	      0.0000000
     -0.1353640	      0.0066135	      0.0000000
     -0.1387821	      0.0063353	      0.0000000
     -0.1420690	      0.0060363	      0.0000000
     -0.1452155	      0.0057155	      0.0000000
     -0.1482121	      0.0053723	      0.0000000
     -0.1510488	      0.0050061	      0.0000000
     -0.1537157	      0.0046164	      0.0000000
     -0.1562026	      0.0042027	      0.0000000
     -0.1584990	      0.0037649	      0.0000000
     -0.1605947	      0.0033029	      0.0000000
     -0.1624793	      0.0028167	      0.0000000
     -0.1641425	      0.0023068	      0.0000000
     -0.1655743	      0.0017737	      0.0000000
     -0.1667649	      0.0012181	      0.0000000
     -0.1677049	      0.0006410	      0.0000000
     -0.1683852	      0.0000435	      0.0000000
     -0.1687973	     -0.0005729	      0.0000000
     -0.1689336	     -0.0012074	      0.0000000
     -0.1687869	     -0.0018586	      0.0000000
     -0.1683507	     -0.0025245	      0.0000000
     -0.1676197	     -0.0032027	      0.0000000
     -0.1665893	     -0.0038909	      0.0000000
     -0.1652563	     -0.0045861	      0.0000000
     -0.1636185	     -0.0052853	      0.0000000
     -0.1616752	     -0.0059854	      0.0000000
     -0.1594267	     -0.0066829	      0.0000000
     -0.1568752	     -0.0073745	      0.0000000
     -0.1540239	     -0.0080565	      0.0000000
     -0.1508778	     -0.0087252	      0.0000000
     -0.1474434	     -0.0093770	      0.0000000
     -0.1437286	     -0.0100081	      0.0000000
     -0.1397429	     -0.0106149	      0.0000000
     -0.1354973	     -0.0111936	      0.0000000
     -0.1310045	     -0.0117407	      0.0000000
     -0.1262784	     -0.0122527	      0.0000000
     -0.1213345	     -0.0127260	      0.0000000
     -0.1161899	     -0.0131575	      0.0000000
     -0.1108627	     -0.0135438	      0.0000000
     -0.1053727	     -0.0138819	      0.0000000
     -0.0997408	     -0.0141687	      0.0000000
     -0.0939895	     -0.0144012	      0.0000000
     -0.0881423	     -0.0145764	      0.0000000
     -0.0822243	     -0.0146913	      0.0000000
     -0.0762617	     -0.0147428	      0.0000000
     -0.0702825	     -0.0147277	      0.0000000
     -0.0643156	     -0.0146428	      0.0000000
     -0.0583922	     -0.0144843	      0.0000000
     -0.0525442	     -0.0142487	      0.0000000
     -0.0468062	     -0.0139319	      0.0000000
     -0.0412133	     -0.0135299	      0.0000000
     -0.0358040	     -0.0130386	      0.0000000
     -0.0306165	     -0.0124540	      0.0000000
     -0.0256929	     -0.0117722	      0.0000000
     -0.0210734	     -0.0109910	      0.0000000
     -0.0168028	     -0.0101080	      0.0000000
     -0.0129207	     -0.0091253	      0.0000000
     -0.0094716	     -0.0080455	      0.0000000
     -0.0064889	     -0.0068806	      0.0000000
     -0.0040095	     -0.0056445	      0.0000000
     -0.0020506	     -0.0043698	      0.0000000
     -0.0006282	     -0.0030928	      0.0000000
      0.0002740	     -0.0018859	      0.0000000
      0.0006866	     -0.0008236	      0.0000000
      0.0006843	     -0.0000469	      0.0000000
      0.0003973	      0.0003159	      0.0000000
      0.0000000	      0.0000000	      0.0000000
      0.0000000	      0.0000000	      0.0000000
     -0.0007612	      0.0008436	      0.0000000
     -0.0019543	      0.0022585	      0.0000000
     -0.0037811	      0.0038310	      0.0000000
     -0.0061489	      0.0054714	      0.0000000
     -0.0090467	      0.0070013	      0.0000000
     -0.0124000	      0.0084030	      0.0000000
     -0.0161760	      0.0096160	      0.0000000
     -0.0203058	      0.0106548	      0.0000000
     -0.0247480	      0.0115102	      0.0000000
     -0.0294425	      0.0122064	      0.0000000
     -0.0343498	      0.0127535	      0.0000000
     -0.0394215	      0.0131753	      0.0000000
     -0.0446247	      0.0134869	      0.0000000
     -0.0499230	      0.0137080	      0.0000000
     -0.0552912	      0.0138527	      0.0000000
     -0.0607036	      0.0139360	      0.0000000
     -0.0661420	      0.0139686	      0.0000000
     -0.0715887	      0.0139608	      0.0000000
     -0.0770309	      0.0139201	      0.0000000
     -0.0824565	      0.0138528	      0.0000000
     -0.0878565	      0.0137631	      0.0000000
     -0.0932221	      0.0136543	      0.0000000
     -0.0985463	      0.0135286	      0.0000000
     -0.1038222	      0.0133870	      0.0000000
     -0.1090438	      0.0132300	      0.0000000
     -0.1142047	      0.0130575	      0.0000000
     -0.1192988	      0.0128688	      0.0000000
     -0.1243197	      0.0126630	      0.0000000
     -0.1292608	      0.0124390	      0.0000000
     -0.1341152	      0.0121955	      0.0000000
     -0.1388755	      0.0119310	      0.0000000
     -0.1435340	      0.0116441	      0.0000000
     -0.1480824	      0.0113333	      0.0000000
     -0.1525120	      0.0109971	      0.0000000
     -0.1568138	      0.0106340	      0.0000000
     -0.1609782	      0.0102426	      0.0000000
     -0.1649951	      0.0098216	      0.0000000
     -0.1688543	      0.0093698	      0.0000000
     -0.1725449	      0.0088859	      0.0000000
     -0.1760559	      0.0083689	      0.0000000
     -0.1793760	      0.0078180	      0.0000000
     -0.1824934	      0.0072325	      0.0000000
     -0.1853966	      0.0066119	      0.0000000
     -0.1880736	      0.0059558	      0.0000000
     -0.1905126	      0.0052641	      0.0000000
     -0.1927016	      0.0045372	      0.0000000
     -0.1946291	      0.0037755	      0.0000000
     -0.1962835	      0.0029797	      0.0000000
     -0.1976536	      0.0021510	      0.0000000
     -0.1987288	      0.0012908	      0.0000000
     -0.1994988	      0.0004007	      0.0000000
     -0.1999538	     -0.0005171	      0.0000000
     -0.2000853	     -0.0014610	      0.0000000
     -0.1998852	     -0.0024288	      0.0000000
     -0.1993466	     -0.0034175	      0.0000000
     -0.1984634	     -0.0044239	      0.0000000
     -0.1972310	     -0.0054442	      0.0000000
     -0.1956459	     -0.0064743	      0.0000000
     -0.1937059	     -0.0075099	      0.0000000
     -0.1914105	     -0.0085462	      0.0000000
     -0.1887605	     -0.0095786	      0.0000000
     -0.1857585	     -0.0106018	      0.0000000
     -0.1824087	     -0.0116108	      0.0000000
     -0.1787168	     -0.0126001	      0.0000000
     -0.1746906	     -0.0135645	      0.0000000
     -0.1703393	     -0.0144986	      0.0000000
     -0.1656739	     -0.0153970	      0.0000000
     -0.1607075	     -0.0162544	      0.0000000
     -0.1554543	     -0.0170655	      0.0000000
     -0.1499307	     -0.0178253	      0.0000000
     -0.1441545	     -0.0185287	      0.0000000
     -0.1381452	     -0.0191709	      0.0000000
     -0.1319237	     -0.0197473	      0.0000000
     -0.1255128	     -0.0202531	      0.0000000
     -0.1189365	     -0.0206839	      0.0000000
     -0.1122205	     -0.0210354	      0.0000000
     -0.1053918	     -0.0213029	      0.0000000
     -0.0984792	     -0.0214822	      0.0000000
     -0.0915126	     -0.0215685	      0.0000000
     -0.0845241	     -0.0215572	      0.0000000
     -0.0775470	     -0.0214432	      0.0000000
     -0.0706165	     -0.0212214	      0.0000000
     -0.0637695	     -0.0208862	      0.0000000
     -0.0570452	     -0.0204317	      0.0000000
     -0.0504837	     -0.0198523	      0.0000000
     -0.0441286	     -0.0191418	      0.0000000
     -0.0380233	     -0.0182947	      0.0000000
     -0.0322152	     -0.0173056	      0.0000000
     -0.0267497	     -0.0161714	      0.0000000
     -0.0216769	     -0.0148896	      0.0000000
     -0.0170412	     -0.0134635	      0.0000000
     -0.0128919	     -0.0118980	      0.0000000
     -0.0092657	     -0.0102105	      0.0000000
     -0.0062042	     -0.0084221	      0.0000000
     -0.0037252	     -0.0065785	      0.0000000
     -0.0018494	     -0.0047312	      0.0000000
     -0.0005572	     -0.0029789	      0.0000000
      0.0001734	     -0.0014235	      0.0000000
      0.0004266	     -0.0002576	      0.0000000
      0.0003065	      0.0003429	      0.0000000
      0.0000000	      0.0000000	      0.0000000
      0.0000000	      0.0000000	      0.0000000
     -0.0008761	      0.0016240	      0.0000000
     -0.0023144	      0.0037351	      0.0000000
     -0.0045186	      0.0059408	      0.0000000
     -0.0073337	      0.0081548	      0.0000000
     -0.0107498	      0.0102020	      0.0000000
     -0.0146615	      0.0120646	      0.0000000
     -0.0190377	      0.0136811	      0.0000000