# vtk DataFile Version 2.0
vw
ASCII
DATASET STRUCTURED_POINTS
DIMENSIONS  102  102    1
ORIGIN      0.0000000      0.0000000      0.0000000
SPACING      0.0100000      0.0100000      0.0100000
POINT_DATA  10404
VECTORS velocity float
      0.0000000	      0.0000000	      0.0000000
      0.0000000	      0.0000000	      0.0000000
      0.0000000	      0.0000000	      0.0000000
      0.0000000	      0.0000000	      0.0000000
      0.0000000	      0.0000000	      0.0000000
      0.0000000	      0.0000000	      0.0000000
      0.0000000	      0.0000000	      0.0000000
      0.0000000	      0.0000000	      0.0000000
      0.0000000	      0.0000000	      0.0000000
      0.0000000	      0.0000000	      0.0000000
      0.0000000	      0.0000000	      0.0000000
      0.0000000	      0.0000000	      0.0000000
      0.0000000	      0.0000000	      0.0000000
      0.0000000	      0.0000000	      0.0000000
      0.0000000	      0.0000000	      0.0000000
      0.0000000	      0.0000000	      0.0000000
      0.0000000	      0.0000000	      0.0000000
      0.0000000	      0.0000000	      0.0000000
      0.0000000	      0.0000000	      0.0000000
      0.0000000	      0.0000000	      0.0000000
      0.0000000	      0.0000000	      0.0000000
      0.0000000	      0.0000000	      0.0000000
      0.0000000	      0.0000000	      0.0000000
      0.0000000	      0.0000000	      0.0000000
      0.0000000	      0.0000000	      0.0000000
      0.0000000	      0.0000000	      0.0000000
      0.0000000	      0.0000000	      0.0000000
      0.0000000	      0.0000000	      0.0000000
      0.0000000	      0.0000000	      0.0000000
      0.0000000	      0.0000000	      0.0000000
      0.0000000	      0.0000000	      0.0000000
      0.0000000	      0.0000000	      0.0000000
      0.0000000	      0.0000000	      0.0000000
      0.0000000	      0.0000000	      0.0000000
      0.0000000	      0.0000000	      0.0000000
      0.0000000	      0.0000000	      0.0000000
      0.0000000	      0.0000000	      0.0000000
      0.0000000	      0.0000000	      0.0000000
      0.0000000	      0.0000000	      0.0000000
      0.0000000	      0.0000000	      0.0000000
      0.0000000	      0.0000000	      0.0000000
      0.0000000	      0.0000000	      0.0000000
      0.0000000	      0.0000000	      0.0000000
      0.0000000	      0.0000000	      0.0000000
      0.0000000	      0.0000000	      0.0000000
      0.0000000	      0.0000000	      0.0000000
      0.0000000	      0.0000000	      0.0000000
      0.0000000	      0.0000000	      0.0000000
      0.0000000	      0.0000000	      0.0000000
      0.0000000	      0.0000000	      0.0000000
      0.0000000	      0.0000000	      0.0000000
      0.0000000	      0.0000000	      0.0000000
      0.0000000	      0.0000000	      0.0000000
      0.0000000	      0.0000000	      0.0000000
      0.0000000	      0.0000000	      0.0000000
      0.0000000	      0.0000000	      0.0000000
      0.0000000	      0.0000000	      0.0000000
      0.0000000	      0.0000000	      0.0000000
      0.0000000	      0.0000000	      0.0000000
      0.0000000	      0.0000000	      0.0000000
      0.0000000	      0.0000000	      0.0000000
      0.0000000	      0.0000000	      0.0000000
      0.0000000	      0.0000000	      0.0000000
      0.0000000	      0.0000000	      0.0000000
      0.0000000	      0.0000000	      0.0000000
      0.0000000	      0.0000000	      0.0000000
      0.0000000	      0.0000000	      0.0000000
      0.0000000	      0.0000000	      0.0000000
      0.0000000	      0.0000000	      0.0000000
      0.0000000	      0.0000000	      0.0000000
      0.0000000	      0.0000000	      0.0000000
      0.0000000	      0.0000000	      0.0000000
      0.0000000	      0.0000000	      0.0000000
      0.0000000	      0.0000000	      0.0000000
      0.0000000	      0.0000000	      0.0000000
      0.0000000	      0.0000000	      0.0000000
      0.0000000	      0.0000000	      0.0000000
      0.0000000	      0.0000000	      0.0000000
      0.0000000	      0.0000000	      0.0000000
      0.0000000	      0.0000000	      0.0000000
      0.0000000	      0.0000000	      0.0000000
      0.0000000	      0.0000000	      0.0000000
      0.0000000	      0.0000000	      0.0000000
      0.0000000	      0.0000000	      0.0000000
      0.0000000	      0.0000000	      0.0000000
      0.0000000	      0.0000000	      0.0000000
      0.0000000	      0.0000000	      0.0000000
      0.0000000	      0.0000000	      0.0000000
      0.0000000	      0.0000000	      0.0000000
      0.0000000	      0.0000000	      0.0000000
      0.0000000	      0.0000000	      0.0000000
      0.0000000	      0.0000000	      0.0000000
      0.0000000	      0.0000000	      0.0000000
      0.0000000	      0.0000000	      0.0000000
      0.0000000	      0.0000000	      0.0000000
      0.0000000	      0.0000000	      0.0000000
      0.0000000	      0.0000000	      0.0000000
      0.0000000	      0.0000000	      0.0000000
      0.0000000	      0.0000000	      0.0000000
      0.0000000	      0.0000000	      0.0000000
      0.0000000	      0.0000000	      0.0000000
      0.0000000	      0.0000000	      0.0000000
      0.0000000	      0.0000000	      0.0000000
     -0.0025482	     -0.0032338	      0.0000000
     -0.0024200	     -0.0044287	      0.0000000
     -0.0005900	     -0.0050385	      0.0000000
      0.0012184	     -0.0052220	      0.0000000
      0.0035539	     -0.0052415	      0.0000000
      0.0056108	     -0.0051407	      0.0000000
      0.0076812	     -0.0049778	      0.0000000
      0.0093691	     -0.0047755	      0.0000000
      0.0108393	     -0.0045506	      0.0000000
      0.0118963	     -0.0043160	      0.0000000
      0.0126388	     -0.0040771	      0.0000000
      0.0129727	     -0.0038402	      0.0000000
      0.0129589	     -0.0036062	      0.0000000
      0.0125531	     -0.0033771	      0.0000000
      0.0117918	     -0.0031519	      0.0000000
      0.0106534	     -0.0029302	      0.0000000
      0.0091577	     -0.0027100	      0.0000000
      0.0072922	     -0.0024906	      0.0000000
      0.0050648	     -0.0022704	      0.0000000
      0.0024659	     -0.0020485	      0.0000000
     -0.0005038	     -0.0018232	      0.0000000
     -0.0038536	     -0.0015933	      0.0000000
     -0.0075866	     -0.0013584	      0.0000000
     -0.0117110	     -0.0011184	      0.0000000
     -0.0162308	     -0.0008734	      0.0000000
     -0.0211516	     -0.0006240	      0.0000000
     -0.0264750	     -0.0003713	      0.0000000
     -0.0322010	     -0.0001170	      0.0000000
     -0.0383251	      0.0001368	      0.0000000
     -0.0448388	      0.0003868	      0.0000000
     -0.0517272	      0.0006296	      0.0000000
     -0.0589700	      0.0008613	      0.0000000
     -0.0665396	      0.0010775	      0.0000000
     -0.0744011	      0.0012733	      0.0000000
     -0.0825116	      0.0014438	      0.0000000
     -0.0908201	      0.0015835	      0.0000000
     -0.0992669	      0.0016868	      0.0000000
     -0.1077841	      0.0017480	      0.0000000
     -0.1162953	      0.0017614	      0.0000000
     -0.1247159	      0.0017215	      0.0000000
     -0.1329540	      0.0016229	      0.0000000
     -0.1409108	      0.0014607	      0.0000000
     -0.1484817	      0.0012306	      0.0000000
     -0.1555571	      0.0009288	      0.0000000
     -0.1620242	      0.0005525	      0.0000000
     -0.1677681	      0.0001000	      0.0000000
     -0.1726741	     -0.0004287	      0.0000000
     -0.1766296	     -0.0010327	      0.0000000
     -0.1795267	     -0.0017091	      0.0000000
     -0.1812647	     -0.0024535	      0.0000000
     -0.1817523	     -0.0032593	      0.0000000
     -0.1809111	     -0.0041182	      0.0000000
     -0.1786757	     -0.0050208	      0.0000000
     -0.1749975	     -0.0059557	      0.0000000
     -0.1698457	     -0.0069098	      0.0000000
     -0.1632103	     -0.0078685	      0.0000000
     -0.1551037	     -0.0088154	      0.0000000
     -0.1455627	     -0.0097333	      0.0000000
     -0.1346490	     -0.0106038	      0.0000000
     -0.1224505	     -0.0114084	      0.0000000
     -0.1090810	     -0.0121285	      0.0000000
     -0.0946798	     -0.0127461	      0.0000000
     -0.0794102	     -0.0132443	      0.0000000
     -0.0634582	     -0.0136081	      0.0000000
     -0.0470291	     -0.0138248	      0.0000000
     -0.0303444	     -0.0138843	      0.0000000
     -0.0136377	     -0.0137809	      0.0000000
      0.0028509	     -0.0135122	      0.0000000
      0.0188796	     -0.0130819	      0.0000000
      0.0342130	     -0.0124972	      0.0000000
      0.0486282	     -0.0117682	      0.0000000
      0.0619191	     -0.0109120	      0.0000000
      0.0739025	     -0.0099471	      0.0000000
      0.0844265	     -0.0088971	      0.0000000
      0.0933700	     -0.0077874	      0.0000000
      0.1006504	     -0.0066452	      0.0000000
      0.1062227	     -0.0054980	      0.0000000
      0.1100827	     -0.0043733	      0.0000000
      0.1122636	     -0.0032970	      0.0000000
      0.1128379	     -0.0022930	      0.0000000
      0.1119088	     -0.0013819	      0.0000000
      0.1096131	     -0.0005773	      0.0000000
      0.1060993	      0.0001200	      0.0000000
      0.1015261	      0.0007106	      0.0000000
      0.0960468	      0.0011940	      0.0000000
      0.0898285	      0.0015748	      0.0000000
      0.0830119	      0.0018601	      0.0000000
      0.0757580	      0.0020573	      0.0000000
      0.0681798	      0.0021766	      0.0000000
      0.0604304	      0.0022232	      0.0000000
      0.0525891	      0.0022060	      0.0000000
      0.0448159	      0.0021200	      0.0000000
      0.0371645	      0.0019678	      0.0000000
      0.0298362	      0.0017214	      0.0000000
      0.0228849	      0.0013772	      0.0000000
      0.0165950	      0.0008702	      0.0000000
      0.0110559	      0.0002277	      0.0000000
      0.0066048	     -0.0006282	      0.0000000
      0.0033515	     -0.0013943	      0.0000000
      0.0012273	     -0.0018508	      0.0000000
      0.0000000	      0.0000000	      0.0000000
      0.0000000	      0.0000000	      0.0000000
     -0.0027016	     -0.0051803	      0.0000000
     -0.0022940	     -0.0078080	      0.0000000
      0.0000326	     -0.0093290	      0.0000000
      0.0026644	     -0.0099647	      0.0000000
      0.0059958	     -0.0101227	      0.0000000
      0.0090650	     -0.0099192	      0.0000000
      0.0120948	     -0.0094980	      0.0000000
      0.0145720	     -0.0089240	      0.0000000
      0.0166324	     -0.0082592	      0.0000000
      0.0180152	     -0.0075388	      0.0000000
      0.0188086	     -0.0067906	      0.0000000
      0.0188854	     -0.0060310	      0.0000000
      0.0183034	     -0.0052704	      0.0000000
      0.0170021	     -0.0045136	      0.0000000
      0.0150169	     -0.0037619	      0.0000000
      0.0123171	     -0.0030143	      0.0000000
      0.0089210	     -0.0022686	      0.0000000
      0.0048093	     -0.0015214	      0.0000000
     -0.0000119	     -0.0007694	      0.0000000
     -0.0055576	     -0.0000097	      0.0000000
     -0.0118301	      0.0007605	      0.0000000
     -0.0188416	      0.0015424	      0.0000000
     -0.0265973	      0.0023367	      0.0000000
     -0.0351066	      0.0031431	      0.0000000
     -0.0443727	      0.0039597	      0.0000000
     -0.0543982	      0.0047835	      0.0000000
     -0.0651784	      0.0056092	      0.0000000
     -0.0767036	      0.0064304	      0.0000000
     -0.0889546	      0.0072385	      0.0000000
     -0.1019038	      0.0080228	      0.0000000
     -0.1155121	      0.0087717	      0.0000000
     -0.1297288	      0.0094718	      0.0000000
     -0.1444901	      0.0101087	      0.0000000
     -0.1597184	      0.0106668	      0.0000000
     -0.1753218	      0.0111296	      0.0000000
     -0.1911939	      0.0114802	      0.0000000
     -0.2072139	      0.0117014	      0.0000000
     -0.2232470	      0.0117761	      0.0000000
     -0.2391447	      0.0116877	      0.0000000
     -0.2547465	      0.0114203	      0.0000000
     -0.2698808	      0.0109594	      0.0000000
     -0.2843666	      0.0102922	      0.0000000
     -0.2980156	      0.0094078	      0.0000000
     -0.3106346	      0.0082979	      0.0000000
     -0.3220280	      0.0069571	      0.0000000
     -0.3320005	      0.0053837	      0.0000000
     -0.3403606	      0.0035799	      0.0000000
     -0.3469236	      0.0015527	      0.0000000
     -0.3515160	     -0.0006857	      0.0000000
     -0.3539785	     -0.0031184	      0.0000000
     -0.3541724	     -0.0057226	      0.0000000
     -0.3519827	     -0.0084720	      0.0000000
     -0.3473186	     -0.0113363	      0.0000000
     -0.3401174	     -0.0142801	      0.0000000
     -0.3303472	     -0.0172642	      0.0000000
     -0.3180099	     -0.0202445	      0.0000000
     -0.3031437	     -0.0231738	      0.0000000
     -0.2858245	     -0.0260017	      0.0000000
     -0.2661676	     -0.0286763	      0.0000000
     -0.2443277	     -0.0311449	      0.0000000
     -0.2204990	     -0.0333555	      0.0000000
     -0.1949140	     -0.0352576	      0.0000000
     -0.1678417	     -0.0368042	      0.0000000
     -0.1395844	     -0.0379530	      0.0000000
     -0.1104747	     -0.0386679	      0.0000000
     -0.0808698	     -0.0389208	      0.0000000
     -0.0511468	     -0.0386928	      0.0000000
     -0.0216953	     -0.0379762	      0.0000000
      0.0070904	     -0.0367757	      0.0000000
      0.0348181	     -0.0351109	      0.0000000
      0.0611131	     -0.0330120	      0.0000000
      0.0856249	     -0.0305192	      0.0000000
      0.1080363	     -0.0276877	      0.0000000
      0.1280719	     -0.0245805	      0.0000000
      0.1455041	     -0.0212679	      0.0000000
      0.1601627	     -0.0178274	      0.0000000
      0.1719352	     -0.0143379	      0.0000000
      0.1807735	     -0.0108792	      0.0000000
      0.1866905	     -0.0075278	      0.0000000
      0.1897628	     -0.0043559	      0.0000000
      0.1901217	     -0.0014270	      0.0000000
      0.1879541	      0.0012114	      0.0000000
      0.1834886	      0.0035393	      0.0000000
      0.1769845	      0.0055486	      0.0000000
      0.1686960	      0.0072350	      0.0000000
      0.1589028	      0.0086054	      0.0000000
      0.1478561	      0.0096739	      0.0000000
      0.1358347	      0.0104576	      0.0000000
      0.1230607	      0.0109793	      0.0000000
      0.1098049	      0.0112533	      0.0000000
      0.0962487	      0.0112988	      0.0000000
      0.0826721	      0.0111077	      0.0000000
      0.0692225	      0.0106828	      0.0000000
      0.0562337	      0.0099679	      0.0000000
      0.0438407	      0.0089515	      0.0000000
      0.0324859	      0.0075096	      0.0000000
      0.0222980	      0.0056973	      0.0000000
      0.0138239	      0.0033741	      0.0000000
      0.0070996	      0.0010729	      0.0000000
      0.0025701	     -0.0009728	      0.0000000
      0.0000000	      0.0000000	      0.0000000
      0.0000000	      0.0000000	      0.0000000
     -0.0025932	     -0.0067365	      0.0000000
     -0.0019939	     -0.0111297	      0.0000000
      0.0005828	     -0.0138201	      0.0000000
      0.0035467	     -0.0151125	      0.0000000
      0.0072297	     -0.0154799	      0.0000000
      0.0106210	     -0.0151368	      0.0000000
      0.0138821	     -0.0143334	      0.0000000
      0.0164513	     -0.0131940	      0.0000000
      0.0184232	     -0.0118484	      0.0000000
      0.0195038	     -0.0103636	      0.0000000
      0.0197557	     -0.0088036	      0.0000000
      0.0190307	     -0.0071993	      0.0000000
      0.0173708	     -0.0055776	      0.0000000
      0.0147012	     -0.0039478	      0.0000000
      0.0110464	     -0.0023173	      0.0000000
      0.0063647	     -0.0006841	      0.0000000
      0.0006668	      0.0009540	      0.0000000
     -0.0060736	      0.0026011	      0.0000000
     -0.0138540	      0.0042608	      0.0000000
     -0.0226936	      0.0059377	      0.0000000
     -0.0325968	      0.0076343	      0.0000000
     -0.0435779	      0.0093520	      0.0000000
     -0.0556417	      0.0110901	      0.0000000
     -0.0687951	      0.0128459	      0.0000000
     -0.0830358	      0.0146129	      0.0000000
     -0.0983571	      0.0163820	      0.0000000
     -0.1147415	      0.0181403	      0.0000000
     -0.1321618	      0.0198715	      0.0000000
     -0.1505769	      0.0215555	      0.0000000
     -0.1699320	      0.0231692	      0.0000000
     -0.1901559	      0.0246861	      0.0000000
     -0.2111601	      0.0260773	      0.0000000
     -0.2328380	      0.0273117	      0.0000000
     -0.2550639	      0.0283565	      0.0000000
     -0.2776932	      0.0291778	      0.0000000
     -0.3005626	      0.0297412	      0.0000000
     -0.3234907	      0.0300126	      0.0000000
     -0.3462790	      0.0299587	      0.0000000
     -0.3687137	      0.0295482	      0.0000000
     -0.3905676	      0.0287522	      0.0000000
     -0.4116024	      0.0275449	      0.0000000
     -0.4315712	      0.0259049	      0.0000000
     -0.4502221	      0.0238154	      0.0000000
     -0.4673010	      0.0212653	      0.0000000
     -0.4825556	      0.0182499	      0.0000000
     -0.4957386	      0.0147713	      0.0000000
     -0.5066124	      0.0108403	      0.0000000
     -0.5149521	      0.0064756	      0.0000000
     -0.5205509	      0.0017060	      0.0000000
     -0.5232234	     -0.0034297	      0.0000000
     -0.5228123	     -0.0088802	      0.0000000
     -0.5191936	     -0.0145895	      0.0000000
     -0.5122740	     -0.0204958	      0.0000000
     -0.5019958	     -0.0265284	      0.0000000
     -0.4883398	     -0.0326098	      0.0000000
     -0.4713276	     -0.0386549	      0.0000000
     -0.4510238	     -0.0445734	      0.0000000
     -0.4275372	     -0.0502707	      0.0000000
     -0.4010223	     -0.0556497	      0.0000000
     -0.3716784	     -0.0606126	      0.0000000
     -0.3397503	     -0.0650633	      0.0000000
     -0.3055261	     -0.0689088	      0.0000000
     -0.2693356	     -0.0720625	      0.0000000
     -0.2315474	     -0.0744458	      0.0000000
     -0.1925653	     -0.0759910	      0.0000000
     -0.1528231	     -0.0766440	      0.0000000
     -0.1127798	     -0.0763667	      0.0000000
     -0.0729118	     -0.0751395	      0.0000000
     -0.0337071	     -0.0729644	      0.0000000
      0.0043464	     -0.0698676	      0.0000000
      0.0407649	     -0.0659009	      0.0000000
      0.0750931	     -0.0611405	      0.0000000
      0.1069059	     -0.0556792	      0.0000000
      0.1358287	     -0.0496305	      0.0000000
      0.1615343	     -0.0431253	      0.0000000
      0.1837606	     -0.0363062	      0.0000000
      0.2023138	     -0.0293221	      0.0000000
      0.2170756	     -0.0223269	      0.0000000
      0.2280031	     -0.0154700	      0.0000000
      0.2351321	     -0.0088952	      0.0000000
      0.2385723	     -0.0027312	      0.0000000
      0.2385040	      0.0029083	      0.0000000
      0.2351808	      0.0079537	      0.0000000
      0.2289164	      0.0123764	      0.0000000
      0.2200257	      0.0161599	      0.0000000
      0.2088618	      0.0193058	      0.0000000
      0.1957561	      0.0218308	      0.0000000
      0.1810753	      0.0237597	      0.0000000
      0.1651318	      0.0251264	      0.0000000
      0.1482930	      0.0259562	      0.0000000
      0.1308329	      0.0262765	      0.0000000
      0.1131332	      0.0260797	      0.0000000
      0.0954292	      0.0253632	      0.0000000
      0.0781629	      0.0240487	      0.0000000
      0.0615409	      0.0221053	      0.0000000
      0.0461321	      0.0193702	      0.0000000
      0.0320993	      0.0158980	      0.0000000
      0.0201900	      0.0115366	      0.0000000
      0.0104188	      0.0068936	      0.0000000
      0.0037696	      0.0022252	      0.0000000
      0.0000000	      0.0000000	      0.0000000
      0.0000000	      0.0000000	      0.0000000
     -0.0023636	     -0.0088780	      0.0000000
     -0.0016300	     -0.0148783	      0.0000000
      0.0009458	     -0.0186337	      0.0000000
      0.0038317	     -0.0204906	      0.0000000
      0.0073292	     -0.0209927	      0.0000000
      0.0104516	     -0.0204267	      0.0000000
      0.0133213	     -0.0191341	      0.0000000
      0.0153664	     -0.0172984	      0.0000000
      0.0166480	     -0.0151135	      0.0000000
      0.0168536	     -0.0126829	      0.0000000
      0.0160203	     -0.0101071	      0.0000000
      0.0139816	     -0.0074356	      0.0000000
      0.0107594	     -0.0047131	      0.0000000
      0.0062624	     -0.0019559	      0.0000000
      0.0004998	      0.0008230	      0.0000000
     -0.0065825	      0.0036226	      0.0000000
     -0.0149810	      0.0064409	      0.0000000
     -0.0247292	      0.0092813	      0.0000000
     -0.0358315	      0.0121464	      0.0000000
     -0.0483113	      0.0150412	      0.0000000
     -0.0621754	      0.0179667	      0.0000000
     -0.0774379	      0.0209225	      0.0000000
     -0.0941005	      0.0239034	      0.0000000
     -0.1121631	      0.0269006	      0.0000000
     -0.1316126	      0.0298998	      0.0000000
     -0.1524275	      0.0328818	      0.0000000
     -0.1745707	      0.0358213	      0.0000000
     -0.1979908	      0.0386879	      0.0000000
     -0.2226174	      0.0414455	      0.0000000
     -0.2483617	      0.0440531	      0.0000000
     -0.2751134	      0.0464654	      0.0000000
     -0.3027410	      0.0486333	      0.0000000
     -0.3310900	      0.0505050	      0.0000000
     -0.3599840	      0.0520270	      0.0000000
     -0.3892243	      0.0531448	      0.0000000
     -0.4185919	      0.0538044	      0.0000000
     -0.4478480	      0.0539535	      0.0000000
     -0.4767369	      0.0535422	      0.0000000
     -0.5049884	      0.0525250	      0.0000000
     -0.5323203	      0.0508613	      0.0000000
     -0.5584423	      0.0485170	      0.0000000
     -0.5830593	      0.0454652	      0.0000000
     -0.6058755	      0.0416879	      0.0000000
     -0.6265979	      0.0371761	      0.0000000
     -0.6449412	      0.0319315	      0.0000000
     -0.6606311	      0.0259666	      0.0000000
     -0.6734095	      0.0193067	      0.0000000
     -0.6830369	      0.0119892	      0.0000000
     -0.6892981	      0.0040664	      0.0000000
     -0.6920053	     -0.0043955	      0.0000000
     -0.6910025	     -0.0133118	      0.0000000
     -0.6861712	     -0.0225918	      0.0000000
     -0.6774275	     -0.0321385	      0.0000000
     -0.6647263	     -0.0418418	      0.0000000
     -0.6480638	     -0.0515830	      0.0000000
     -0.6274792	     -0.0612334	      0.0000000
     -0.6030571	     -0.0706577	      0.0000000
     -0.5749273	     -0.0797155	      0.0000000
     -0.5432664	     -0.0882634	      0.0000000
     -0.5082974	     -0.0961578	      0.0000000
     -0.4702889	     -0.1032575	      0.0000000
     -0.4295547	     -0.1094263	      0.0000000
     -0.3864515	     -0.1145363	      0.0000000
     -0.3413769	     -0.1184709	      0.0000000
     -0.2947662	     -0.1211284	      0.0000000
     -0.2470882	     -0.1224255	      0.0000000
     -0.1988407	     -0.1223005	      0.0000000
     -0.1505446	     -0.1207172	      0.0000000
     -0.1027364	     -0.1176685	      0.0000000
     -0.0559628	     -0.1131794	      0.0000000
     -0.0107667	     -0.1073132	      0.0000000
      0.0323121	     -0.1001678	      0.0000000
      0.0727687	     -0.0918820	      0.0000000
      0.1101337	     -0.0826169	      0.0000000
      0.1439923	     -0.0725554	      0.0000000
      0.1739937	     -0.0619103	      0.0000000
      0.1998530	     -0.0509042	      0.0000000
      0.2213661	     -0.0397694	      0.0000000
      0.2384118	     -0.0287365	      0.0000000
      0.2509574	     -0.0180317	      0.0000000
      0.2590520	     -0.0078623	      0.0000000
      0.2628381	      0.0015775	      0.0000000
      0.2625270	      0.0101382	      0.0000000
      0.2584532	      0.0177458	      0.0000000
      0.2509560	      0.0243610	      0.0000000
      0.2404292	      0.0299686	      0.0000000
      0.2272551	      0.0345774	      0.0000000
      0.2118629	      0.0382121	      0.0000000
      0.1946335	      0.0409107	      0.0000000
      0.1760127	      0.0427051	      0.0000000
      0.1563519	      0.0436286	      0.0000000
      0.1361212	      0.0436743	      0.0000000
      0.1156297	      0.0428349	      0.0000000
      0.0954149	      0.0410169	      0.0000000
      0.0757375	      0.0381692	      0.0000000
      0.0572810	      0.0340976	      0.0000000
      0.0402272	      0.0288289	      0.0000000
      0.0255286	      0.0221759	      0.0000000
      0.0132005	      0.0146904	      0.0000000
      0.0047506	      0.0065652	      0.0000000
      0.0000000	      0.0000000	      0.0000000
      0.0000000	      0.0000000	      0.0000000
     -0.0022777	     -0.0108877	      0.0000000
     -0.0015832	     -0.0183954	      0.0000000
      0.0007871	     -0.0231084	      0.0000000
      0.0033017	     -0.0254232	      0.0000000
      0.0062564	     -0.0259443	      0.0000000
      0.0086891	     -0.0250288	      0.0000000
      0.0107087	     -0.0231013	      0.0000000
      0.0117494	     -0.0204031	      0.0000000
      0.0118533	     -0.0171911	      0.0000000
      0.0107003	     -0.0136056	      0.0000000
      0.0083069	     -0.0097849	      0.0000000
      0.0044927	     -0.0057973	      0.0000000
     -0.0007402	     -0.0017063	      0.0000000
     -0.0074991	      0.0024635	      0.0000000
     -0.0157881	      0.0066877	      0.0000000
     -0.0256692	      0.0109590	      0.0000000
     -0.0371514	      0.0152706	      0.0000000
     -0.0502758	      0.0196256	      0.0000000
     -0.0650548	      0.0240241	      0.0000000
     -0.0815155	      0.0284682	      0.0000000
     -0.0996659	      0.0329546	      0.0000000
     -0.1195170	      0.0374771	      0.0000000
     -0.1410639	      0.0420227	      0.0000000
     -0.1642955	      0.0465724	      0.0000000
     -0.1891832	      0.0510996	      0.0000000
     -0.2156853	      0.0555701	      0.0000000
     -0.2437395	      0.0599415	      0.0000000
     -0.2732642	      0.0641642	      0.0000000
     -0.3041546	      0.0681810	      0.0000000
     -0.3362826	      0.0719284	      0.0000000
     -0.3694949	      0.0753372	      0.0000000
     -0.4036133	      0.0783345	      0.0000000
     -0.4384343	      0.0808442	      0.0000000
     -0.4737304	      0.0827893	      0.0000000
     -0.5092513	      0.0840931	      0.0000000
     -0.5447259	      0.0846810	      0.0000000
     -0.5798651	      0.0844825	      0.0000000
     -0.6143646	      0.0834324	      0.0000000
     -0.6479084	      0.0814730	      0.0000000
     -0.6801731	      0.0785553	      0.0000000
     -0.7108311	      0.0746405	      0.0000000
     -0.7395557	      0.0697014	      0.0000000
     -0.7660250	      0.0637235	      0.0000000
     -0.7899258	      0.0567060	      0.0000000
     -0.8109587	      0.0486631	      0.0000000
     -0.8288409	      0.0396236	      0.0000000
     -0.8433114	      0.0296335	      0.0000000
     -0.8541326	      0.0187544	      0.0000000
     -0.8610956	      0.0070669	      0.0000000
     -0.8640211	     -0.0053315	      0.0000000
     -0.8627640	     -0.0183194	      0.0000000
     -0.8572142	     -0.0317686	      0.0000000
     -0.8472977	     -0.0455442	      0.0000000
     -0.8329787	     -0.0594946	      0.0000000
     -0.8142632	     -0.0734580	      0.0000000
     -0.7911992	     -0.0872608	      0.0000000
     -0.7638795	     -0.1007219	      0.0000000
     -0.7324407	     -0.1136540	      0.0000000
     -0.6970656	     -0.1258670	      0.0000000
     -0.6579814	     -0.1371708	      0.0000000
     -0.6154614	     -0.1473780	      0.0000000
     -0.5698229	     -0.1563079	      0.0000000
     -0.5214271	     -0.1637893	      0.0000000
     -0.4706767	     -0.1696655	      0.0000000
     -0.4180146	     -0.1737972	      0.0000000
     -0.3639200	     -0.1760680	      0.0000000
     -0.3089053	     -0.1763878	      0.0000000
     -0.2535104	     -0.1746983	      0.0000000
     -0.1982981	     -0.1709768	      0.0000000
     -0.1438460	     -0.1652416	      0.0000000
     -0.0907400	     -0.1575538	      0.0000000
     -0.0395661	     -0.1480276	      0.0000000
      0.0091030	     -0.1368245	      0.0000000
      0.0547103	     -0.1241495	      0.0000000
      0.0967594	     -0.1102538	      0.0000000
      0.1348001	     -0.0954094	      0.0000000
      0.1684596	     -0.0799113	      0.0000000
      0.1974407	     -0.0640787	      0.0000000
      0.2215289	     -0.0482313	      0.0000000
      0.2406061	     -0.0326849	      0.0000000
      0.2546431	     -0.0177409	      0.0000000
      0.2637183	     -0.0036790	      0.0000000
      0.2679762	      0.0092426	      0.0000000
      0.2677122	      0.0208655	      0.0000000
      0.2632763	      0.0311165	      0.0000000
      0.2550752	      0.0399490	      0.0000000
      0.2435197	      0.0473527	      0.0000000
      0.2290795	      0.0533423	      0.0000000
      0.2121848	      0.0579512	      0.0000000
      0.1933422	      0.0612125	      0.0000000
      0.1729655	      0.0631596	      0.0000000
      0.1515991	      0.0637866	      0.0000000
      0.1296162	      0.0630780	      0.0000000
      0.1076393	      0.0609312	      0.0000000
      0.0859808	      0.0572674	      0.0000000
      0.0654328	      0.0518705	      0.0000000
      0.0462098	      0.0447037	      0.0000000
      0.0294578	      0.0355417	      0.0000000
      0.0152210	      0.0247572	      0.0000000
      0.0054433	      0.0124121	      0.0000000
      0.0000000	      0.0000000	      0.0000000
      0.0000000	      0.0000000	      0.0000000
     -0.0022833	     -0.0130256	      0.0000000
     -0.0017750	     -0.0218526	      0.0000000
      0.0001713	     -0.0273051	      0.0000000
      0.0020361	     -0.0298495	      0.0000000
      0.0041091	     -0.0301911	      0.0000000
      0.0054701	     -0.0287445	      0.0000000
      0.0062241	     -0.0260142	      0.0000000