# vtk DataFile Version 2.0
vw
ASCII
DATASET STRUCTURED_POINTS
DIMENSIONS  102  102    1
ORIGIN      0.0000000      0.0000000      0.0000000
SPACING      0.0100000      0.0100000      0.0100000
POINT_DATA  10404
VECTORS velocity float
      0.0000000	      0.0000000	      0.0000000
      0.0000000	      0.0000000	      0.0000000
      0.0000000	      0.0000000	      0.0000000
      0.0000000	      0.0000000	      0.0000000
      0.0000000	      0.0000000	      0.0000000
      0.0000000	      0.0000000	      0.0000000
      0.0000000	      0.0000000	      0.0000000
      0.0000000	      0.0000000	      0.0000000
      0.0000000	      0.0000000	      0.0000000
      0.0000000	      0.0000000	      0.0000000
      0.0000000	      0.0000000	      0.0000000
      0.0000000	      0.0000000	      0.0000000
      0.0000000	      0.0000000	      0.0000000
      0.0000000	      0.0000000	      0.0000000
      0.0000000	      0.0000000	      0.0000000
      0.0000000	      0.0000000	      0.0000000
      0.0000000	      0.0000000	      0.0000000
      0.0000000	      0.0000000	      0.0000000
      0.0000000	      0.0000000	      0.0000000
      0.0000000	      0.0000000	      0.0000000
      0.0000000	      0.0000000	      0.0000000
      0.0000000	      0.0000000	      0.0000000
      0.0000000	      0.0000000	      0.0000000
      0.0000000	      0.0000000	      0.0000000
      0.0000000	      0.0000000	      0.0000000
      0.0000000	      0.0000000	      0.0000000
      0.0000000	      0.0000000	      0.0000000
      0.0000000	      0.0000000	      0.0000000
      0.0000000	      0.0000000	      0.0000000
      0.0000000	      0.0000000	      0.0000000
      0.0000000	      0.0000000	      0.0000000
      0.0000000	      0.0000000	      0.0000000
      0.0000000	      0.0000000	      0.0000000
      0.0000000	      0.0000000	      0.0000000
      0.0000000	      0.0000000	      0.0000000
      0.0000000	      0.0000000	      0.0000000
      0.0000000	      0.0000000	      0.0000000
      0.0000000	      0.0000000	      0.0000000
      0.0000000	      0.0000000	      0.0000000
      0.0000000	      0.0000000	      0.0000000
      0.0000000	      0.0000000	      0.0000000
      0.0000000	      0.0000000	      0.0000000
      0.0000000	      0.0000000	      0.0000000
      0.0000000	      0.0000000	      0.0000000
      0.0000000	      0.0000000	      0.0000000
      0.0000000	      0.0000000	      0.0000000
      0.0000000	      0.0000000	      0.0000000
      0.0000000	      0.0000000	      0.0000000
      0.0000000	      0.0000000	      0.0000000
      0.0000000	      0.0000000	      0.0000000
      0.0000000	      0.0000000	      0.0000000
      0.0000000	      0.0000000	      0.0000000
      0.0000000	      0.0000000	      0.0000000
      0.0000000	      0.0000000	      0.0000000
      0.0000000	      0.0000000	      0.0000000
      0.0000000	      0.0000000	      0.0000000
      0.0000000	      0.0000000	      0.0000000
      0.0000000	      0.0000000	      0.0000000
      0.0000000	      0.0000000	      0.0000000
      0.0000000	      0.0000000	      0.0000000
      0.0000000	      0.0000000	      0.0000000
      0.0000000	      0.0000000	      0.0000000
      0.0000000	      0.0000000	      0.0000000
      0.0000000	      0.0000000	      0.0000000
      0.0000000	      0.0000000	      0.0000000
      0.0000000	      0.0000000	      0.0000000
      0.0000000	      0.0000000	      0.0000000
      0.0000000	      0.0000000	      0.0000000
      0.0000000	      0.0000000	      0.0000000
      0.0000000	      0.0000000	      0.0000000
      0.0000000	      0.0000000	      0.0000000
      0.0000000	      0.0000000	      0.0000000
      0.0000000	      0.0000000	      0.0000000
      0.0000000	      0.0000000	      0.0000000
      0.0000000	      0.0000000	      0.0000000
      0.0000000	      0.0000000	      0.0000000
      0.0000000	      0.0000000	      0.0000000
      0.0000000	      0.0000000	      0.0000000
      0.0000000	      0.0000000	      0.0000000
      0.0000000	      0.0000000	      0.0000000
      0.0000000	      0.0000000	      0.0000000
      0.0000000	      0.0000000	      0.0000000
      0.0000000	      0.0000000	      0.0000000
      0.0000000	      0.0000000	      0.0000000
      0.0000000	      0.0000000	      0.0000000
      0.0000000	      0.0000000	      0.0000000
      0.0000000	      0.0000000	      0.0000000
      0.0000000	      0.0000000	      0.0000000
      0.0000000	      0.0000000	      0.0000000
      0.0000000	      0.0000000	      0.0000000
      0.0000000	      0.0000000	      0.0000000
      0.0000000	      0.0000000	      0.0000000
      0.0000000	      0.0000000	      0.0000000
      0.0000000	      0.0000000	      0.0000000
      0.0000000	      0.0000000	      0.0000000
      0.0000000	      0.0000000	      0.0000000
      0.0000000	      0.0000000	      0.0000000
      0.0000000	      0.0000000	      0.0000000
      0.0000000	      0.0000000	      0.0000000
      0.0000000	      0.0000000	      0.0000000
      0.0000000	      0.0000000	      0.0000000
      0.0000000	      0.0000000	      0.0000000
      0.0000000	      0.0000000	      0.0000000
     -0.0121642	     -0.0151332	      0.0000000
     -0.0110727	     -0.0214739	      0.0000000
     -0.0010376	     -0.0247371	      0.0000000
      0.0102147	     -0.0261078	      0.0000000
      0.0235565	     -0.0262194	      0.0000000
      0.0361622	     -0.0254795	      0.0000000
      0.0476654	     -0.0241396	      0.0000000
      0.0570226	     -0.0224677	      0.0000000
      0.0640340	     -0.0206639	      0.0000000
      0.0685062	     -0.0189013	      0.0000000
      0.0705813	     -0.0172917	      0.0000000
      0.0704671	     -0.0158994	      0.0000000
      0.0684676	     -0.0147386	      0.0000000
      0.0648763	     -0.0137882	      0.0000000
      0.0599545	     -0.0130014	      0.0000000
      0.0538970	     -0.0123218	      0.0000000
      0.0468308	     -0.0116917	      0.0000000
      0.0388094	     -0.0110627	      0.0000000
      0.0298303	     -0.0104003	      0.0000000
      0.0198496	     -0.0096840	      0.0000000
      0.0088015	     -0.0089045	      0.0000000
     -0.0033904	     -0.0080551	      0.0000000
     -0.0167999	     -0.0071369	      0.0000000
     -0.0314829	     -0.0061628	      0.0000000
     -0.0474799	     -0.0051446	      0.0000000
     -0.0648127	     -0.0040951	      0.0000000
     -0.0834841	     -0.0030263	      0.0000000
     -0.1034784	     -0.0019506	      0.0000000
     -0.1247584	     -0.0008791	      0.0000000
     -0.1472722	      0.0001754	      0.0000000
     -0.1709398	      0.0011924	      0.0000000
     -0.1956640	      0.0021560	      0.0000000
     -0.2213291	      0.0030530	      0.0000000
     -0.2478025	      0.0038697	      0.0000000
     -0.2749348	      0.0045924	      0.0000000
     -0.3025613	      0.0052070	      0.0000000
     -0.3305026	      0.0057000	      0.0000000
     -0.3585661	      0.0060581	      0.0000000
     -0.3865474	      0.0062690	      0.0000000
     -0.4142324	      0.0063211	      0.0000000
     -0.4413983	      0.0062039	      0.0000000
     -0.4678159	      0.0059083	      0.0000000
     -0.4932511	      0.0054262	      0.0000000
     -0.5174670	      0.0047512	      0.0000000
     -0.5402251	      0.0038784	      0.0000000
     -0.5612885	      0.0028042	      0.0000000
     -0.5804204	      0.0015277	      0.0000000
     -0.5973945	      0.0000504	      0.0000000
     -0.6119800	     -0.0016157	      0.0000000
     -0.6239714	     -0.0034548	      0.0000000
     -0.6331636	     -0.0054941	      0.0000000
     -0.6393281	     -0.0077728	      0.0000000
     -0.6422297	     -0.0102746	      0.0000000
     -0.6416745	     -0.0129637	      0.0000000
     -0.6375083	     -0.0158082	      0.0000000
     -0.6296111	     -0.0187762	      0.0000000
     -0.6179002	     -0.0218354	      0.0000000
     -0.6023294	     -0.0249508	      0.0000000
     -0.5828932	     -0.0280843	      0.0000000
     -0.5596292	     -0.0311943	      0.0000000
     -0.5326216	     -0.0342353	      0.0000000
     -0.5020052	     -0.0371586	      0.0000000
     -0.4679683	     -0.0399121	      0.0000000
     -0.4307558	     -0.0424419	      0.0000000
     -0.3906716	     -0.0446923	      0.0000000
     -0.3480798	     -0.0466080	      0.0000000
     -0.3034049	     -0.0481348	      0.0000000
     -0.2571305	     -0.0492221	      0.0000000
     -0.2097959	     -0.0498244	      0.0000000
     -0.1619910	     -0.0499042	      0.0000000
     -0.1143483	     -0.0494340	      0.0000000
     -0.0675323	     -0.0484001	      0.0000000
     -0.0222249	     -0.0468042	      0.0000000
      0.0208915	     -0.0446743	      0.0000000
      0.0611554	     -0.0420593	      0.0000000
      0.0979656	     -0.0390038	      0.0000000
      0.1307765	     -0.0355795	      0.0000000
      0.1591295	     -0.0318787	      0.0000000
      0.1826730	     -0.0280023	      0.0000000
      0.2011771	     -0.0240640	      0.0000000
      0.2145493	     -0.0201795	      0.0000000
      0.2228400	     -0.0164613	      0.0000000
      0.2262399	     -0.0130145	      0.0000000
      0.2250787	     -0.0099326	      0.0000000
      0.2198036	     -0.0072880	      0.0000000
      0.2109719	     -0.0051343	      0.0000000
      0.1991889	     -0.0034476	      0.0000000
      0.1850384	     -0.0021714	      0.0000000
      0.1690819	     -0.0012856	      0.0000000
      0.1518675	     -0.0007561	      0.0000000
      0.1338947	     -0.0005428	      0.0000000
      0.1156235	     -0.0006056	      0.0000000
      0.0974577	     -0.0009122	      0.0000000
      0.0797878	     -0.0014558	      0.0000000
      0.0629703	     -0.0022511	      0.0000000
      0.0474369	     -0.0033652	      0.0000000
      0.0335999	     -0.0048182	      0.0000000
      0.0219747	     -0.0066451	      0.0000000
      0.0129323	     -0.0081844	      0.0000000
      0.0059169	     -0.0083326	      0.0000000
      0.0000000	      0.0000000	      0.0000000
      0.0000000	      0.0000000	      0.0000000
     -0.0122783	     -0.0248101	      0.0000000
     -0.0092225	     -0.0393452	      0.0000000
      0.0047478	     -0.0480375	      0.0000000
      0.0215907	     -0.0522756	      0.0000000
      0.0414487	     -0.0531071	      0.0000000
      0.0605472	     -0.0514140	      0.0000000
      0.0779398	     -0.0479205	      0.0000000
      0.0920442	     -0.0433361	      0.0000000
      0.1023678	     -0.0382471	      0.0000000
      0.1085302	     -0.0331378	      0.0000000
      0.1106252	     -0.0283445	      0.0000000
      0.1088872	     -0.0240679	      0.0000000
      0.1037065	     -0.0203765	      0.0000000
      0.0954838	     -0.0172382	      0.0000000
      0.0845898	     -0.0145465	      0.0000000
      0.0713144	     -0.0121711	      0.0000000
      0.0558530	     -0.0099665	      0.0000000
      0.0383064	     -0.0078016	      0.0000000
      0.0186928	     -0.0055779	      0.0000000
     -0.0030268	     -0.0032285	      0.0000000
     -0.0269277	     -0.0007230	      0.0000000
     -0.0530977	      0.0019486	      0.0000000
     -0.0815947	      0.0047626	      0.0000000
     -0.1124631	      0.0076865	      0.0000000
     -0.1457161	      0.0106845	      0.0000000
     -0.1813345	      0.0137178	      0.0000000
     -0.2192629	      0.0167464	      0.0000000
     -0.2594095	      0.0197289	      0.0000000
     -0.3016457	      0.0226247	      0.0000000
     -0.3458059	      0.0253886	      0.0000000
     -0.3916915	      0.0279735	      0.0000000
     -0.4390737	      0.0303381	      0.0000000
     -0.4876928	      0.0324431	      0.0000000
     -0.5372612	      0.0342502	      0.0000000
     -0.5874667	      0.0357226	      0.0000000
     -0.6379751	      0.0368253	      0.0000000
     -0.6884336	      0.0375256	      0.0000000
     -0.7384744	      0.0377937	      0.0000000
     -0.7877181	      0.0376031	      0.0000000
     -0.8357772	      0.0369308	      0.0000000
     -0.8822593	      0.0357576	      0.0000000
     -0.9267707	      0.0340683	      0.0000000
     -0.9689196	      0.0318518	      0.0000000
     -1.0083192	      0.0291011	      0.0000000
     -1.0445901	      0.0258136	      0.0000000
     -1.0773640	      0.0219908	      0.0000000
     -1.1062844	      0.0176393	      0.0000000
     -1.1310121	      0.0127694	      0.0000000
     -1.1512166	      0.0074005	      0.0000000
     -1.1665911	      0.0015552	      0.0000000
     -1.1768043	     -0.0047801	      0.0000000
     -1.1815874	     -0.0116374	      0.0000000
     -1.1807060	     -0.0189751	      0.0000000
     -1.1739708	     -0.0267044	      0.0000000
     -1.1612483	     -0.0347454	      0.0000000
     -1.1424512	     -0.0430169	      0.0000000
     -1.1175445	     -0.0514353	      0.0000000
     -1.0865451	     -0.0599123	      0.0000000
     -1.0495258	     -0.0683527	      0.0000000
     -1.0066174	     -0.0766542	      0.0000000
     -0.9580128	     -0.0847070	      0.0000000
     -0.9039699	     -0.0923945	      0.0000000
     -0.8448149	     -0.0995938	      0.0000000
     -0.7809456	     -0.1061774	      0.0000000
     -0.7128332	     -0.1120151	      0.0000000
     -0.6410248	     -0.1169762	      0.0000000
     -0.5661428	     -0.1209330	      0.0000000
     -0.4888851	     -0.1237642	      0.0000000
     -0.4100216	     -0.1253593	      0.0000000
     -0.3303894	     -0.1256234	      0.0000000
     -0.2508863	     -0.1244826	      0.0000000
     -0.1724588	     -0.1218905	      0.0000000
     -0.0960926	     -0.1178354	      0.0000000
     -0.0227832	     -0.1123489	      0.0000000
      0.0464513	     -0.1055190	      0.0000000
      0.1106583	     -0.0974808	      0.0000000
      0.1689674	     -0.0883893	      0.0000000
      0.2206060	     -0.0784536	      0.0000000
      0.2649283	     -0.0679195	      0.0000000
      0.3014412	     -0.0570611	      0.0000000
      0.3298366	     -0.0461744	      0.0000000
      0.3500066	     -0.0355566	      0.0000000
      0.3620505	     -0.0254975	      0.0000000
      0.3662858	     -0.0162651	      0.0000000
      0.3632231	     -0.0080897	      0.0000000
      0.3535831	     -0.0011383	      0.0000000
      0.3381917	      0.0045652	      0.0000000
      0.3180077	      0.0090682	      0.0000000
      0.2939594	      0.0124018	      0.0000000
      0.2669846	      0.0146383	      0.0000000
      0.2379682	      0.0158704	      0.0000000
      0.2077519	      0.0161959	      0.0000000
      0.1771039	      0.0156985	      0.0000000
      0.1467686	      0.0144138	      0.0000000
      0.1174189	      0.0123342	      0.0000000
      0.0898096	      0.0093621	      0.0000000
      0.0645646	      0.0054851	      0.0000000
      0.0425622	      0.0006898	      0.0000000
      0.0241260	     -0.0039686	      0.0000000
      0.0101504	     -0.0069969	      0.0000000
      0.0000000	      0.0000000	      0.0000000
      0.0000000	      0.0000000	      0.0000000
     -0.0108589	     -0.0336639	      0.0000000
     -0.0058127	     -0.0579840	      0.0000000
      0.0107024	     -0.0735725	      0.0000000
      0.0304796	     -0.0816183	      0.0000000
      0.0533469	     -0.0834308	      0.0000000
      0.0751642	     -0.0804103	      0.0000000
      0.0946772	     -0.0738974	      0.0000000
      0.1100422	     -0.0651721	      0.0000000
      0.1205844	     -0.0553421	      0.0000000
      0.1257959	     -0.0453105	      0.0000000
      0.1256997	     -0.0357260	      0.0000000
      0.1204969	     -0.0269865	      0.0000000
      0.1105726	     -0.0192511	      0.0000000
      0.0963406	     -0.0124900	      0.0000000
      0.0781843	     -0.0065410	      0.0000000
      0.0564238	     -0.0011736	      0.0000000
      0.0312680	      0.0038604	      0.0000000
      0.0028704	      0.0087839	      0.0000000
     -0.0287278	      0.0137690	      0.0000000
     -0.0635126	      0.0189291	      0.0000000
     -0.1015138	      0.0243183	      0.0000000
     -0.1427573	      0.0299326	      0.0000000
     -0.1872512	      0.0357293	      0.0000000
     -0.2349730	      0.0416471	      0.0000000
     -0.2858565	      0.0476110	      0.0000000
     -0.3397881	      0.0535386	      0.0000000
     -0.3966039	      0.0593445	      0.0000000
     -0.4560909	      0.0649420	      0.0000000
     -0.5179878	      0.0702452	      0.0000000
     -0.5819882	      0.0751680	      0.0000000
     -0.6477463	      0.0796255	      0.0000000
     -0.7148803	      0.0835385	      0.0000000
     -0.7829749	      0.0868332	      0.0000000
     -0.8515870	      0.0894408	      0.0000000
     -0.9202503	      0.0912980	      0.0000000
     -0.9884816	      0.0923479	      0.0000000
     -1.0557852	      0.0925402	      0.0000000
     -1.1216591	      0.0918323	      0.0000000
     -1.1855997	      0.0901890	      0.0000000
     -1.2471063	      0.0875832	      0.0000000
     -1.3056863	      0.0839959	      0.0000000
     -1.3608586	      0.0794160	      0.0000000
     -1.4121576	      0.0738403	      0.0000000
     -1.4591363	      0.0672734	      0.0000000
     -1.5013690	      0.0597270	      0.0000000
     -1.5384537	      0.0512201	      0.0000000
     -1.5700132	      0.0417783	      0.0000000
     -1.5956979	      0.0314323	      0.0000000
     -1.6151789	      0.0202172	      0.0000000
     -1.6281633	      0.0081677	      0.0000000
     -1.6343626	     -0.0047116	      0.0000000
     -1.6335058	     -0.0183836	      0.0000000
     -1.6255109	     -0.0327245	      0.0000000
     -1.6102757	     -0.0475970	      0.0000000
     -1.5877657	     -0.0628665	      0.0000000
     -1.5579826	     -0.0783968	      0.0000000
     -1.5209781	     -0.0940464	      0.0000000
     -1.4768523	     -0.1096661	      0.0000000
     -1.4257577	     -0.1250974	      0.0000000
     -1.3679013	     -0.1401714	      0.0000000
     -1.3035476	     -0.1547087	      0.0000000
     -1.2330218	     -0.1685195	      0.0000000
     -1.1567129	     -0.1814054	      0.0000000
     -1.0750770	     -0.1931604	      0.0000000
     -0.9886400	     -0.2035740	      0.0000000
     -0.8980002	     -0.2124343	      0.0000000
     -0.8038298	     -0.2195325	      0.0000000
     -0.7068760	     -0.2246680	      0.0000000
     -0.6079598	     -0.2276546	      0.0000000
     -0.5079736	     -0.2283274	      0.0000000
     -0.4078772	     -0.2265512	      0.0000000
     -0.3086906	     -0.2222295	      0.0000000
     -0.2114837	     -0.2153151	      0.0000000
     -0.1173678	     -0.2058196	      0.0000000
     -0.0274638	     -0.1938396	      0.0000000
      0.0570657	     -0.1795571	      0.0000000
      0.1351465	     -0.1632513	      0.0000000
      0.2057921	     -0.1452476	      0.0000000
      0.2681290	     -0.1259259	      0.0000000
      0.3214223	     -0.1057498	      0.0000000
      0.3651145	     -0.0852241	      0.0000000
      0.3988571	     -0.0648737	      0.0000000
      0.4225234	     -0.0452301	      0.0000000
      0.4362343	     -0.0268045	      0.0000000
      0.4403519	     -0.0100587	      0.0000000
      0.4354850	      0.0046124	      0.0000000
      0.4224810	      0.0170041	      0.0000000
      0.4024659	      0.0270948	      0.0000000
      0.3765345	      0.0349028	      0.0000000
      0.3458547	      0.0405171	      0.0000000
      0.3115681	      0.0440745	      0.0000000
      0.2747973	      0.0457306	      0.0000000
      0.2365990	      0.0456281	      0.0000000
      0.1980112	      0.0438498	      0.0000000
      0.1599746	      0.0404148	      0.0000000
      0.1235287	      0.0352305	      0.0000000
      0.0894927	      0.0282896	      0.0000000
      0.0591542	      0.0196044	      0.0000000
      0.0329706	      0.0102403	      0.0000000
      0.0133217	      0.0016259	      0.0000000
      0.0000000	      0.0000000	      0.0000000
      0.0000000	      0.0000000	      0.0000000
     -0.0093002	     -0.0457635	      0.0000000
     -0.0026538	     -0.0797148	      0.0000000
      0.0152291	     -0.1018703	      0.0000000
      0.0358992	     -0.1133544	      0.0000000
      0.0591402	     -0.1157154	      0.0000000
      0.0807200	     -0.1108426	      0.0000000
      0.0993091	     -0.1006703	      0.0000000
      0.1129871	     -0.0870612	      0.0000000
      0.1210166	     -0.0716536	      0.0000000
      0.1228296	     -0.0557841	      0.0000000
      0.1183941	     -0.0404256	      0.0000000
      0.1078574	     -0.0261822	      0.0000000
      0.0915514	     -0.0133149	      0.0000000
      0.0698345	     -0.0018033	      0.0000000
      0.0430376	      0.0085710	      0.0000000
      0.0115172	      0.0180944	      0.0000000
     -0.0244927	      0.0270911	      0.0000000
     -0.0648112	      0.0358613	      0.0000000
     -0.1093335	      0.0446427	      0.0000000
     -0.1579947	      0.0535825	      0.0000000
     -0.2107431	      0.0627464	      0.0000000
     -0.2675125	      0.0721208	      0.0000000
     -0.3282072	      0.0816335	      0.0000000
     -0.3926862	      0.0911776	      0.0000000
     -0.4607541	      0.1006257	      0.0000000
     -0.5321583	      0.1098401	      0.0000000
     -0.6065890	      0.1186801	      0.0000000
     -0.6836816	      0.1270054	      0.0000000
     -0.7630210	      0.1346796	      0.0000000
     -0.8441465	      0.1415709	      0.0000000
     -0.9265601	      0.1475548	      0.0000000
     -1.0097319	      0.1525169	      0.0000000
     -1.0931064	      0.1563534	      0.0000000
     -1.1761103	      0.1589720	      0.0000000
     -1.2581591	      0.1602922	      0.0000000
     -1.3386647	      0.1602460	      0.0000000
     -1.4170421	      0.1587787	      0.0000000
     -1.4927158	      0.1558486	      0.0000000
     -1.5651254	      0.1514276	      0.0000000
     -1.6337305	      0.1455003	      0.0000000
     -1.6980155	      0.1380642	      0.0000000
     -1.7574927	      0.1291286	      0.0000000
     -1.8117054	      0.1187141	      0.0000000
     -1.8602302	      0.1068518	      0.0000000
     -1.9026781	      0.0935824	      0.0000000
     -1.9386957	      0.0789551	      0.0000000
     -1.9679653	      0.0630267	      0.0000000
     -1.9902059	      0.0458592	      0.0000000
     -2.0051653	      0.0275197	      0.0000000
     -2.0126516	      0.0080754	      0.0000000
     -2.0124440	     -0.0124368	      0.0000000
     -2.0044601	     -0.0338737	      0.0000000
     -1.9887150	     -0.0560253	      0.0000000
     -1.9652159	     -0.0787275	      0.0000000
     -1.9340141	     -0.1018048	      0.0000000
     -1.8951878	     -0.1250792	      0.0000000
     -1.8488514	     -0.1483632	      0.0000000
     -1.7951561	     -0.1714591	      0.0000000
     -1.7342933	     -0.1941570	      0.0000000
     -1.6664977	     -0.2162335	      0.0000000
     -1.5920500	     -0.2374517	      0.0000000
     -1.5112811	     -0.2575612	      0.0000000
     -1.4245757	     -0.2762992	      0.0000000
     -1.3323766	     -0.2933926	      0.0000000
     -1.2351880	     -0.3085606	      0.0000000
     -1.1335797	     -0.3215189	      0.0000000
     -1.0281903	     -0.3319847	      0.0000000
     -0.9197292	     -0.3396830	      0.0000000
     -0.8089779	     -0.3443543	      0.0000000
     -0.6967905	     -0.3457636	      0.0000000
     -0.5840911	     -0.3437101	      0.0000000
     -0.4718698	     -0.3380391	      0.0000000
     -0.3611773	     -0.3286542	      0.0000000
     -0.2531136	     -0.3155333	      0.0000000
     -0.1488218	     -0.2987407	      0.0000000
     -0.0494626	     -0.2784678	      0.0000000
      0.0437626	     -0.2550220	      0.0000000
      0.1297037	     -0.2288516	      0.0000000
      0.2073292	     -0.2004761	      0.0000000
      0.2757047	     -0.1704807	      0.0000000
      0.3340606	     -0.1395669	      0.0000000
      0.3818038	     -0.1084709	      0.0000000
      0.4185470	     -0.0779601	      0.0000000
      0.4441539	     -0.0487985	      0.0000000
      0.4587249	     -0.0217040	      0.0000000
      0.4626686	      0.0026526	      0.0000000
      0.4565789	      0.0237517	      0.0000000
      0.4415898	      0.0414016	      0.0000000
      0.4188103	      0.0555654	      0.0000000
      0.3894908	      0.0662901	      0.0000000
      0.3549056	      0.0737149	      0.0000000
      0.3163510	      0.0780226	      0.0000000
      0.2750855	      0.0793986	      0.0000000
      0.2323729	      0.0779704	      0.0000000
      0.1893728	      0.0737872	      0.0000000
      0.1473779	      0.0667679	      0.0000000
      0.1074073	      0.0568644	      0.0000000
      0.0711623	      0.0440162	      0.0000000
      0.0393416	      0.0289764	      0.0000000
      0.0155547	      0.0127925	      0.0000000
      0.0000000	      0.0000000	      0.0000000
      0.0000000	      0.0000000	      0.0000000
     -0.0083550	     -0.0585063	      0.0000000
     -0.0009355	     -0.1018976	      0.0000000
      0.0171564	     -0.1301213	      0.0000000
      0.0371390	     -0.1443662	      0.0000000
      0.0587892	     -0.1465397	      0.0000000
      0.0778921	     -0.1390437	      0.0000000
      0.0931748	     -0.1244206	      0.0000000
      0.1027645	     -0.1051188	      0.0000000
      0.1059598	     -0.0833022	      0.0000000
      0.1022004	     -0.0607319	      0.0000000
      0.0914384	     -0.0386926	      0.0000000
      0.0737727	     -0.0179890	      0.0000000
      0.0494614	      0.0010349	      0.0000000
      0.0187704	      0.0183987	      0.0000000
     -0.0178956	      0.0342657	      0.0000000
     -0.0602235	      0.0489750	      0.0000000
     -0.1079346	      0.0629385	      0.0000000
     -0.1608326	      0.0765212	      0.0000000
     -0.2187552	      0.0900054	      0.0000000
     -0.2815555	      0.1035576	      0.0000000
     -0.3490729	      0.1172310	      0.0000000
     -0.4211120	      0.1309799	      0.0000000
     -0.4974318	      0.1446871	      0.0000000
     -0.5777354	      0.1581906	      0.0000000
     -0.6616664	      0.1713033	      0.0000000
     -0.7488088	      0.1838273	      0.0000000
     -0.8386903	      0.1955640	      0.0000000
     -0.9307878	      0.2063199	      0.0000000
     -1.0245341	      0.2159112	      0.0000000
     -1.1193269	      0.2241665	      0.0000000
     -1.2145371	      0.2309293	      0.0000000
     -1.3095184	      0.2360606	      0.0000000
     -1.4036154	      0.2394400	      0.0000000
     -1.4961725	      0.2409666	      0.0000000
     -1.5865424	      0.2405595	      0.0000000
     -1.6740937	      0.2381575	      0.0000000
     -1.7582180	      0.2337198	      0.0000000
     -1.8383360	      0.2272246	      0.0000000
     -1.9139023	      0.2186691	      0.0000000
     -1.9844092	      0.2080676	      0.0000000
     -2.0493900	      0.1954509	      0.0000000
     -2.1084205	      0.1808644	      0.0000000
     -2.1611204	      0.1643668	      0.0000000
     -2.2071532	      0.1460284	      0.0000000
     -2.2462259	      0.1259297	      0.0000000
     -2.2780880	      0.1041595	      0.0000000
     -2.3025301	      0.0808138	      0.0000000
     -2.3193827	      0.0559931	      0.0000000
     -2.3285099	      0.0298041	      0.0000000
     -2.3298466	      0.0023421	      0.0000000
     -2.3232465	     -0.0262801	      0.0000000
     -2.3088470	     -0.0558192	      0.0000000
     -2.2866839	     -0.0860404	      0.0000000
     -2.2568382	     -0.1167571	      0.0000000
     -2.2194006	     -0.1477681	      0.0000000
     -2.1744821	     -0.1788665	      0.0000000
     -2.1222147	     -0.2098322	      0.0000000
     -2.0627550	     -0.2404317	      0.0000000
     -1.9962875	     -0.2704160	      0.0000000
     -1.9230286	     -0.2995186	      0.0000000
     -1.8432301	     -0.3274559	      0.0000000
     -1.7571844	     -0.3539263	      0.0000000
     -1.6652292	     -0.3786114	      0.0000000
     -1.5677521	     -0.4011780	      0.0000000
     -1.4651962	     -0.4212814	      0.0000000
     -1.3580647	     -0.4385694	      0.0000000
     -1.2469254	     -0.4526884	      0.0000000
     -1.1324146	     -0.4632904	      0.0000000
     -1.0152402	     -0.4700426	      0.0000000
     -0.8961827	     -0.4726368	      0.0000000
     -0.7760957	     -0.4708023	      0.0000000
     -0.6559036	     -0.4643193	      0.0000000
     -0.5365976	     -0.4530341	      0.0000000
     -0.4192287	     -0.4368754	      0.0000000
     -0.3048993	     -0.4158747	      0.0000000
     -0.1947510	     -0.3901836	      0.0000000
     -0.0899676	     -0.3601107	      0.0000000
      0.0082744	     -0.3261263	      0.0000000
      0.0987177	     -0.2888294	      0.0000000
      0.1803494	     -0.2490023	      0.0000000
      0.2521837	     -0.2074755	      0.0000000
      0.3134353	     -0.1651618	      0.0000000
      0.3634822	     -0.1230578	      0.0000000
      0.4019359	     -0.0821718	      0.0000000
      0.4286303	     -0.0434901	      0.0000000
      0.4437226	     -0.0079468	      0.0000000
      0.4475212	      0.0235535	      0.0000000
      0.4409074	      0.0505117	      0.0000000
      0.4249456	      0.0727795	      0.0000000
      0.4008374	      0.0903083	      0.0000000
      0.3698846	      0.1031891	      0.0000000
      0.3334564	      0.1115908	      0.0000000
      0.2929265	      0.1157088	      0.0000000
      0.2497134	      0.1156936	      0.0000000
      0.2051482	      0.1116070	      0.0000000
      0.1607428	      0.1033615	      0.0000000
      0.1177206	      0.0908156	      0.0000000
      0.0781554	      0.0737480	      0.0000000
      0.0430152	      0.0523832	      0.0000000
      0.0167880	      0.0271116	      0.0000000
      0.0000000	      0.0000000	      0.0000000
      0.0000000	      0.0000000	      0.0000000
     -0.0079976	     -0.0720950	      0.0000000
     -0.0006794	     -0.1244004	      0.0000000
      0.0164067	     -0.1577440	      0.0000000
      0.0342085	     -0.1736575	      0.0000000
      0.0525171	     -0.1745940	      0.0000000
      0.0672112	     -0.1635264	      0.0000000
      0.0771568	     -0.1436185	      0.0000000