# vtk DataFile Version 2.0
vw
ASCII
DATASET STRUCTURED_POINTS
DIMENSIONS  102  102    1
ORIGIN      0.0000000      0.0000000      0.0000000
SPACING      0.0100000      0.0100000      0.0100000
POINT_DATA  10404
VECTORS velocity float
      0.0000000	      0.0000000	      0.0000000
      0.0000000	      0.0000000	      0.0000000
      0.0000000	      0.0000000	      0.0000000
      0.0000000	      0.0000000	      0.0000000
      0.0000000	      0.0000000	      0.0000000
      0.0000000	      0.0000000	      0.0000000
      0.0000000	      0.0000000	      0.0000000
      0.0000000	      0.0000000	      0.0000000
      0.0000000	      0.0000000	      0.0000000
      0.0000000	      0.0000000	      0.0000000
      0.0000000	      0.0000000	      0.0000000
      0.0000000	      0.0000000	      0.0000000
      0.0000000	      0.0000000	      0.0000000
      0.0000000	      0.0000000	      0.0000000
      0.0000000	      0.0000000	      0.0000000
      0.0000000	      0.0000000	      0.0000000
      0.0000000	      0.0000000	      0.0000000
      0.0000000	      0.0000000	      0.0000000
      0.0000000	      0.0000000	      0.0000000
      0.0000000	      0.0000000	      0.0000000
      0.0000000	      0.0000000	      0.0000000
      0.0000000	      0.0000000	      0.0000000
      0.0000000	      0.0000000	      0.0000000
      0.0000000	      0.0000000	      0.0000000
      0.0000000	      0.0000000	      0.0000000
      0.0000000	      0.0000000	      0.0000000
      0.0000000	      0.0000000	      0.0000000
      0.0000000	      0.0000000	      0.0000000
      0.0000000	      0.0000000	      0.0000000
      0.0000000	      0.0000000	      0.0000000
      0.0000000	      0.0000000	      0.0000000
      0.0000000	      0.0000000	      0.0000000
      0.0000000	      0.0000000	      0.0000000
      0.0000000	      0.0000000	      0.0000000
      0.0000000	      0.0000000	      0.0000000
      0.0000000	      0.0000000	      0.0000000
      0.0000000	      0.0000000	      0.0000000
      0.0000000	      0.0000000	      0.0000000
      0.0000000	      0.0000000	      0.0000000
      0.0000000	      0.0000000	      0.0000000
      0.0000000	      0.0000000	      0.0000000
      0.0000000	      0.0000000	      0.0000000
      0.0000000	      0.0000000	      0.0000000
      0.0000000	      0.0000000	      0.0000000
      0.0000000	      0.0000000	      0.0000000
      0.0000000	      0.0000000	      0.0000000
      0.0000000	      0.0000000	      0.0000000
      0.0000000	      0.0000000	      0.0000000
      0.0000000	      0.0000000	      0.0000000
      0.0000000	      0.0000000	      0.0000000
      0.0000000	      0.0000000	      0.0000000
      0.0000000	      0.0000000	      0.0000000
      0.0000000	      0.0000000	      0.0000000
      0.0000000	      0.0000000	      0.0000000
      0.0000000	      0.0000000	      0.0000000
      0.0000000	      0.0000000	      0.0000000
      0.0000000	      0.0000000	      0.0000000
      0.0000000	      0.0000000	      0.0000000
      0.0000000	      0.0000000	      0.0000000
      0.0000000	      0.0000000	      0.0000000
      0.0000000	      0.0000000	      0.0000000
      0.0000000	      0.0000000	      0.0000000
      0.0000000	      0.0000000	      0.0000000
      0.0000000	      0.0000000	      0.0000000
      0.0000000	      0.0000000	      0.0000000
      0.0000000	      0.0000000	      0.0000000
      0.0000000	      0.0000000	      0.0000000
      0.0000000	      0.0000000	      0.0000000
      0.0000000	      0.0000000	      0.0000000
      0.0000000	      0.0000000	      0.0000000
      0.0000000	      0.0000000	      0.0000000
      0.0000000	      0.0000000	      0.0000000
      0.0000000	      0.0000000	      0.0000000
      0.0000000	      0.0000000	      0.0000000
      0.0000000	      0.0000000	      0.0000000
      0.0000000	      0.0000000	      0.0000000
      0.0000000	      0.0000000	      0.0000000
      0.0000000	      0.0000000	      0.0000000
      0.0000000	      0.0000000	      0.0000000
      0.0000000	      0.0000000	      0.0000000
      0.0000000	      0.0000000	      0.0000000
      0.0000000	      0.0000000	      0.0000000
      0.0000000	      0.0000000	      0.0000000
      0.0000000	      0.0000000	      0.0000000
      0.0000000	      0.0000000	      0.0000000
      0.0000000	      0.0000000	      0.0000000
      0.0000000	      0.0000000	      0.0000000
      0.0000000	      0.0000000	      0.0000000
      0.0000000	      0.0000000	      0.0000000
      0.0000000	      0.0000000	      0.0000000
      0.0000000	      0.0000000	      0.0000000
      0.0000000	      0.0000000	      0.0000000
      0.0000000	      0.0000000	      0.0000000
      0.0000000	      0.0000000	      0.0000000
      0.0000000	      0.0000000	      0.0000000
      0.0000000	      0.0000000	      0.0000000
      0.0000000	      0.0000000	      0.0000000
      0.0000000	      0.0000000	      0.0000000
      0.0000000	      0.0000000	      0.0000000
      0.0000000	      0.0000000	      0.0000000
      0.0000000	      0.0000000	      0.0000000
      0.0000000	      0.0000000	      0.0000000
      0.0000000	      0.0000000	      0.0000000
     -0.0065779	     -0.0072290	      0.0000000
     -0.0081530	     -0.0090591	      0.0000000
     -0.0070658	     -0.0095877	      0.0000000
     -0.0065138	     -0.0095518	      0.0000000
     -0.0055837	     -0.0093610	      0.0000000
     -0.0050444	     -0.0091348	      0.0000000
     -0.0046503	     -0.0089105	      0.0000000
     -0.0045658	     -0.0087071	      0.0000000
     -0.0047045	     -0.0085240	      0.0000000
     -0.0050851	     -0.0083629	      0.0000000
     -0.0056643	     -0.0082203	      0.0000000
     -0.0064289	     -0.0080941	      0.0000000
     -0.0073524	     -0.0079810	      0.0000000
     -0.0084194	     -0.0078781	      0.0000000
     -0.0096136	     -0.0077829	      0.0000000
     -0.0109242	     -0.0076933	      0.0000000
     -0.0123420	     -0.0076075	      0.0000000
     -0.0138603	     -0.0075242	      0.0000000
     -0.0154742	     -0.0074427	      0.0000000
     -0.0171798	     -0.0073626	      0.0000000
     -0.0189737	     -0.0072836	      0.0000000
     -0.0208529	     -0.0072060	      0.0000000
     -0.0228142	     -0.0071300	      0.0000000
     -0.0248539	     -0.0070564	      0.0000000
     -0.0269676	     -0.0069856	      0.0000000
     -0.0291502	     -0.0069185	      0.0000000
     -0.0313956	     -0.0068560	      0.0000000
     -0.0336966	     -0.0067988	      0.0000000
     -0.0360448	     -0.0067480	      0.0000000
     -0.0384307	     -0.0067046	      0.0000000
     -0.0408433	     -0.0066697	      0.0000000
     -0.0432702	     -0.0066444	      0.0000000
     -0.0456974	     -0.0066298	      0.0000000
     -0.0481095	     -0.0066272	      0.0000000
     -0.0504893	     -0.0066377	      0.0000000
     -0.0528181	     -0.0066626	      0.0000000
     -0.0550755	     -0.0067030	      0.0000000
     -0.0572395	     -0.0067601	      0.0000000
     -0.0592866	     -0.0068348	      0.0000000
     -0.0611919	     -0.0069281	      0.0000000
     -0.0629294	     -0.0070407	      0.0000000
     -0.0644722	     -0.0071730	      0.0000000
     -0.0657928	     -0.0073255	      0.0000000
     -0.0668634	     -0.0074981	      0.0000000
     -0.0676562	     -0.0076906	      0.0000000
     -0.0681440	     -0.0079025	      0.0000000
     -0.0683005	     -0.0081329	      0.0000000
     -0.0681007	     -0.0083804	      0.0000000
     -0.0675219	     -0.0086434	      0.0000000
     -0.0665435	     -0.0089197	      0.0000000
     -0.0651485	     -0.0092068	      0.0000000
     -0.0633234	     -0.0095015	      0.0000000
     -0.0610592	     -0.0098005	      0.0000000
     -0.0583519	     -0.0100997	      0.0000000
     -0.0552033	     -0.0103948	      0.0000000
     -0.0516208	     -0.0106811	      0.0000000
     -0.0476188	     -0.0109537	      0.0000000
     -0.0432182	     -0.0112076	      0.0000000
     -0.0384469	     -0.0114374	      0.0000000
     -0.0333399	     -0.0116383	      0.0000000
     -0.0279390	     -0.0118052	      0.0000000
     -0.0222924	     -0.0119337	      0.0000000
     -0.0164544	     -0.0120199	      0.0000000
     -0.0104845	     -0.0120603	      0.0000000
     -0.0044465	     -0.0120524	      0.0000000
      0.0015928	     -0.0119948	      0.0000000
      0.0075642	     -0.0118869	      0.0000000
      0.0133985	     -0.0117291	      0.0000000
      0.0190270	     -0.0115230	      0.0000000
      0.0243836	     -0.0112712	      0.0000000
      0.0294059	     -0.0109774	      0.0000000
      0.0340370	     -0.0106464	      0.0000000
      0.0382261	     -0.0102836	      0.0000000
      0.0419305	     -0.0098953	      0.0000000
      0.0451156	     -0.0094880	      0.0000000
      0.0477559	     -0.0090687	      0.0000000
      0.0498354	     -0.0086443	      0.0000000
      0.0513474	     -0.0082216	      0.0000000
      0.0522943	     -0.0078069	      0.0000000
      0.0526872	     -0.0074061	      0.0000000
      0.0525451	     -0.0070242	      0.0000000
      0.0518937	     -0.0066657	      0.0000000
      0.0507651	     -0.0063341	      0.0000000
      0.0491957	     -0.0060319	      0.0000000
      0.0472260	     -0.0057609	      0.0000000
      0.0448991	     -0.0055223	      0.0000000
      0.0422597	     -0.0053163	      0.0000000
      0.0393536	     -0.0051431	      0.0000000
      0.0362270	     -0.0050029	      0.0000000
      0.0329281	     -0.0048968	      0.0000000
      0.0295074	     -0.0048273	      0.0000000
      0.0260203	     -0.0047988	      0.0000000
      0.0225279	     -0.0048175	      0.0000000
      0.0190995	     -0.0048933	      0.0000000
      0.0158142	     -0.0050347	      0.0000000
      0.0127519	     -0.0052534	      0.0000000
      0.0100066	     -0.0055262	      0.0000000
      0.0075749	     -0.0058051	      0.0000000
      0.0055089	     -0.0057568	      0.0000000
      0.0030949	     -0.0048254	      0.0000000
      0.0000000	      0.0000000	      0.0000000
      0.0000000	      0.0000000	      0.0000000
     -0.0079379	     -0.0100622	      0.0000000
     -0.0107568	     -0.0137424	      0.0000000
     -0.0107979	     -0.0152152	      0.0000000
     -0.0109624	     -0.0154891	      0.0000000
     -0.0105129	     -0.0152703	      0.0000000
     -0.0103982	     -0.0148311	      0.0000000
     -0.0104463	     -0.0143145	      0.0000000
     -0.0109010	     -0.0137928	      0.0000000
     -0.0116949	     -0.0132965	      0.0000000
     -0.0128635	     -0.0128416	      0.0000000
     -0.0143600	     -0.0124307	      0.0000000
     -0.0161663	     -0.0120625	      0.0000000
     -0.0182461	     -0.0117316	      0.0000000
     -0.0205745	     -0.0114321	      0.0000000
     -0.0231258	     -0.0111575	      0.0000000
     -0.0258807	     -0.0109023	      0.0000000
     -0.0288227	     -0.0106615	      0.0000000
     -0.0319389	     -0.0104317	      0.0000000
     -0.0352189	     -0.0102101	      0.0000000
     -0.0386540	     -0.0099953	      0.0000000
     -0.0422363	     -0.0097867	      0.0000000
     -0.0459587	     -0.0095845	      0.0000000
     -0.0498133	     -0.0093897	      0.0000000
     -0.0537919	     -0.0092034	      0.0000000
     -0.0578850	     -0.0090276	      0.0000000
     -0.0620820	     -0.0088641	      0.0000000
     -0.0663705	     -0.0087154	      0.0000000
     -0.0707364	     -0.0085839	      0.0000000
     -0.0751634	     -0.0084724	      0.0000000
     -0.0796335	     -0.0083837	      0.0000000
     -0.0841260	     -0.0083210	      0.0000000
     -0.0886179	     -0.0082874	      0.0000000
     -0.0930837	     -0.0082862	      0.0000000
     -0.0974953	     -0.0083209	      0.0000000
     -0.1018216	     -0.0083949	      0.0000000
     -0.1060291	     -0.0085117	      0.0000000
     -0.1100814	     -0.0086746	      0.0000000
     -0.1139394	     -0.0088869	      0.0000000
     -0.1175618	     -0.0091515	      0.0000000
     -0.1209050	     -0.0094708	      0.0000000
     -0.1239238	     -0.0098469	      0.0000000
     -0.1265714	     -0.0102812	      0.0000000
     -0.1288005	     -0.0107744	      0.0000000
     -0.1305635	     -0.0113266	      0.0000000
     -0.1318131	     -0.0119368	      0.0000000
     -0.1325033	     -0.0126034	      0.0000000
     -0.1325901	     -0.0133235	      0.0000000
     -0.1320321	     -0.0140932	      0.0000000
     -0.1307917	     -0.0149074	      0.0000000
     -0.1288359	     -0.0157597	      0.0000000
     -0.1261373	     -0.0166426	      0.0000000
     -0.1226754	     -0.0175472	      0.0000000
     -0.1184368	     -0.0184631	      0.0000000
     -0.1134172	     -0.0193789	      0.0000000
     -0.1076215	     -0.0202823	      0.0000000
     -0.1010649	     -0.0211596	      0.0000000
     -0.0937732	     -0.0219969	      0.0000000
     -0.0857839	     -0.0227795	      0.0000000
     -0.0771456	     -0.0234926	      0.0000000
     -0.0679187	     -0.0241219	      0.0000000
     -0.0581747	     -0.0246532	      0.0000000
     -0.0479958	     -0.0250738	      0.0000000
     -0.0374743	     -0.0253718	      0.0000000
     -0.0267109	     -0.0255377	      0.0000000
     -0.0158140	     -0.0255638	      0.0000000
     -0.0048973	     -0.0254450	      0.0000000
      0.0059216	     -0.0251790	      0.0000000
      0.0165235	     -0.0247666	      0.0000000
      0.0267903	     -0.0242117	      0.0000000
      0.0366074	     -0.0235212	      0.0000000
      0.0458658	     -0.0227049	      0.0000000
      0.0544648	     -0.0217755	      0.0000000
      0.0623136	     -0.0207481	      0.0000000
      0.0693336	     -0.0196400	      0.0000000
      0.0754597	     -0.0184696	      0.0000000
      0.0806415	     -0.0172566	      0.0000000
      0.0848442	     -0.0160208	      0.0000000
      0.0880485	     -0.0147818	      0.0000000
      0.0902510	     -0.0135583	      0.0000000
      0.0914628	     -0.0123677	      0.0000000
      0.0917095	     -0.0112258	      0.0000000
      0.0910289	     -0.0101461	      0.0000000
      0.0894704	     -0.0091399	      0.0000000
      0.0870925	     -0.0082164	      0.0000000
      0.0839619	     -0.0073823	      0.0000000
      0.0801510	     -0.0066422	      0.0000000
      0.0757372	     -0.0059989	      0.0000000
      0.0708008	     -0.0054542	      0.0000000
      0.0654245	     -0.0050101	      0.0000000
      0.0596946	     -0.0046711	      0.0000000
      0.0537020	     -0.0044440	      0.0000000
      0.0475444	     -0.0043396	      0.0000000
      0.0413254	     -0.0043710	      0.0000000
      0.0351582	     -0.0045562	      0.0000000
      0.0291585	     -0.0049062	      0.0000000
      0.0234427	     -0.0054289	      0.0000000
      0.0181064	     -0.0060615	      0.0000000
      0.0131905	     -0.0066914	      0.0000000
      0.0086653	     -0.0067912	      0.0000000
      0.0043215	     -0.0056355	      0.0000000
      0.0000000	      0.0000000	      0.0000000
      0.0000000	      0.0000000	      0.0000000
     -0.0083246	     -0.0106576	      0.0000000
     -0.0119789	     -0.0160905	      0.0000000
     -0.0131713	     -0.0186949	      0.0000000
     -0.0144008	     -0.0195062	      0.0000000
     -0.0149729	     -0.0193853	      0.0000000
     -0.0158299	     -0.0187603	      0.0000000
     -0.0168496	     -0.0179106	      0.0000000
     -0.0183078	     -0.0169849	      0.0000000
     -0.0201608	     -0.0160683	      0.0000000
     -0.0224589	     -0.0152041	      0.0000000
     -0.0251607	     -0.0144103	      0.0000000
     -0.0282493	     -0.0136908	      0.0000000
     -0.0316858	     -0.0130406	      0.0000000
     -0.0354412	     -0.0124512	      0.0000000
     -0.0394844	     -0.0119123	      0.0000000
     -0.0437909	     -0.0114140	      0.0000000
     -0.0483388	     -0.0109477	      0.0000000
     -0.0531101	     -0.0105066	      0.0000000
     -0.0580893	     -0.0100858	      0.0000000
     -0.0632633	     -0.0096824	      0.0000000
     -0.0686195	     -0.0092952	      0.0000000
     -0.0741462	     -0.0089242	      0.0000000
     -0.0798309	     -0.0085711	      0.0000000
     -0.0856607	     -0.0082383	      0.0000000
     -0.0916210	     -0.0079290	      0.0000000
     -0.0976956	     -0.0076471	      0.0000000
     -0.1038667	     -0.0073969	      0.0000000
     -0.1101136	     -0.0071834	      0.0000000
     -0.1164138	     -0.0070117	      0.0000000
     -0.1227415	     -0.0068875	      0.0000000
     -0.1290683	     -0.0068167	      0.0000000
     -0.1353628	     -0.0068054	      0.0000000
     -0.1415900	     -0.0068603	      0.0000000
     -0.1477117	     -0.0069878	      0.0000000
     -0.1536864	     -0.0071949	      0.0000000
     -0.1594687	     -0.0074883	      0.0000000
     -0.1650100	     -0.0078744	      0.0000000
     -0.1702584	     -0.0083594	      0.0000000
     -0.1751590	     -0.0089490	      0.0000000
     -0.1796542	     -0.0096478	      0.0000000
     -0.1836842	     -0.0104597	      0.0000000
     -0.1871879	     -0.0113870	      0.0000000
     -0.1901033	     -0.0124311	      0.0000000
     -0.1923686	     -0.0135915	      0.0000000
     -0.1939226	     -0.0148662	      0.0000000
     -0.1947061	     -0.0162513	      0.0000000
     -0.1946628	     -0.0177411	      0.0000000
     -0.1937400	     -0.0193273	      0.0000000
     -0.1918902	     -0.0209998	      0.0000000
     -0.1890721	     -0.0227457	      0.0000000
     -0.1852519	     -0.0245499	      0.0000000
     -0.1804043	     -0.0263946	      0.0000000
     -0.1745141	     -0.0282598	      0.0000000
     -0.1675770	     -0.0301230	      0.0000000
     -0.1596007	     -0.0319599	      0.0000000
     -0.1506061	     -0.0337444	      0.0000000
     -0.1406276	     -0.0354490	      0.0000000
     -0.1297139	     -0.0370457	      0.0000000
     -0.1179284	     -0.0385057	      0.0000000
     -0.1053487	     -0.0398012	      0.0000000
     -0.0920668	     -0.0409050	      0.0000000
     -0.0781885	     -0.0417920	      0.0000000
     -0.0638319	     -0.0424393	      0.0000000
     -0.0491267	     -0.0428277	      0.0000000
     -0.0342123	     -0.0429416	      0.0000000
     -0.0192358	     -0.0427704	      0.0000000
     -0.0043498	     -0.0423084	      0.0000000
      0.0102901	     -0.0415556	      0.0000000
      0.0245281	     -0.0405187	      0.0000000
      0.0382120	     -0.0392097	      0.0000000
      0.0511958	     -0.0376467	      0.0000000
      0.0633430	     -0.0358530	      0.0000000
      0.0745287	     -0.0338567	      0.0000000
      0.0846426	     -0.0316901	      0.0000000
      0.0935908	     -0.0293888	      0.0000000
      0.1012979	     -0.0269901	      0.0000000
      0.1077080	     -0.0245328	      0.0000000
      0.1127851	     -0.0220553	      0.0000000
      0.1165139	     -0.0195949	      0.0000000
      0.1188985	     -0.0171867	      0.0000000
      0.1199624	     -0.0148628	      0.0000000
      0.1197463	     -0.0126517	      0.0000000
      0.1183070	     -0.0105778	      0.0000000
      0.1157153	     -0.0086612	      0.0000000
      0.1120539	     -0.0069178	      0.0000000
      0.1074152	     -0.0053594	      0.0000000
      0.1019000	     -0.0039940	      0.0000000
      0.0956140	     -0.0028274	      0.0000000
      0.0886674	     -0.0018655	      0.0000000
      0.0811765	     -0.0011176	      0.0000000
      0.0732627	     -0.0005967	      0.0000000
      0.0650557	     -0.0003208	      0.0000000
      0.0566894	     -0.0003100	      0.0000000
      0.0483087	     -0.0005877	      0.0000000
      0.0400531	     -0.0011630	      0.0000000
      0.0320739	     -0.0020314	      0.0000000
      0.0244792	     -0.0030929	      0.0000000
      0.0174038	     -0.0041766	      0.0000000
      0.0108382	     -0.0047113	      0.0000000
      0.0050420	     -0.0040123	      0.0000000
      0.0000000	      0.0000000	      0.0000000
      0.0000000	      0.0000000	      0.0000000
     -0.0083850	     -0.0116846	      0.0000000
     -0.0126194	     -0.0182830	      0.0000000
     -0.0148674	     -0.0217075	      0.0000000
     -0.0173079	     -0.0229573	      0.0000000
     -0.0191839	     -0.0229215	      0.0000000
     -0.0213566	     -0.0221267	      0.0000000
     -0.0237052	     -0.0209481	      0.0000000
     -0.0265048	     -0.0196073	      0.0000000
     -0.0297235	     -0.0182428	      0.0000000
     -0.0334194	     -0.0169304	      0.0000000
     -0.0375572	     -0.0157079	      0.0000000
     -0.0421232	     -0.0145885	      0.0000000
     -0.0470790	     -0.0135704	      0.0000000
     -0.0523945	     -0.0126442	      0.0000000
     -0.0580362	     -0.0117969	      0.0000000
     -0.0639765	     -0.0110152	      0.0000000
     -0.0701896	     -0.0102870	      0.0000000
     -0.0766538	     -0.0096026	      0.0000000
     -0.0833494	     -0.0089548	      0.0000000
     -0.0902588	     -0.0083393	      0.0000000
     -0.0973656	     -0.0077540	      0.0000000
     -0.1046534	     -0.0071996	      0.0000000
     -0.1121056	     -0.0066780	      0.0000000
     -0.1197046	     -0.0061931	      0.0000000
     -0.1274316	     -0.0057496	      0.0000000
     -0.1352657	     -0.0053536	      0.0000000
     -0.1431841	     -0.0050118	      0.0000000
     -0.1511614	     -0.0047316	      0.0000000
     -0.1591695	     -0.0045210	      0.0000000
     -0.1671773	     -0.0043889	      0.0000000
     -0.1751505	     -0.0043444	      0.0000000
     -0.1830509	     -0.0043974	      0.0000000
     -0.1908371	     -0.0045579	      0.0000000
     -0.1984633	     -0.0048364	      0.0000000
     -0.2058801	     -0.0052435	      0.0000000
     -0.2130336	     -0.0057898	      0.0000000
     -0.2198663	     -0.0064854	      0.0000000
     -0.2263167	     -0.0073398	      0.0000000
     -0.2323198	     -0.0083619	      0.0000000
     -0.2378077	     -0.0095587	      0.0000000
     -0.2427101	     -0.0109360	      0.0000000
     -0.2469550	     -0.0124972	      0.0000000
     -0.2504698	     -0.0142438	      0.0000000
     -0.2531821	     -0.0161748	      0.0000000
     -0.2550208	     -0.0182864	      0.0000000
     -0.2559169	     -0.0205719	      0.0000000
     -0.2558051	     -0.0230217	      0.0000000
     -0.2546247	     -0.0256225	      0.0000000
     -0.2523207	     -0.0283576	      0.0000000
     -0.2488456	     -0.0312066	      0.0000000
     -0.2441605	     -0.0341453	      0.0000000
     -0.2382366	     -0.0371456	      0.0000000
     -0.2310561	     -0.0401758	      0.0000000
     -0.2226141	     -0.0432009	      0.0000000
     -0.2129194	     -0.0461827	      0.0000000
     -0.2019955	     -0.0490805	      0.0000000
     -0.1898815	     -0.0518515	      0.0000000
     -0.1766327	     -0.0544518	      0.0000000
     -0.1623209	     -0.0568371	      0.0000000
     -0.1470347	     -0.0589636	      0.0000000
     -0.1308788	     -0.0607891	      0.0000000
     -0.1139737	     -0.0622739	      0.0000000
     -0.0964549	     -0.0633821	      0.0000000
     -0.0784712	     -0.0640828	      0.0000000
     -0.0601834	     -0.0643507	      0.0000000
     -0.0417620	     -0.0641675	      0.0000000
     -0.0233853	     -0.0635227	      0.0000000
     -0.0052356	     -0.0624143	      0.0000000
      0.0125021	     -0.0608495	      0.0000000
      0.0296451	     -0.0588459	      0.0000000
      0.0460163	     -0.0564296	      0.0000000
      0.0614480	     -0.0536349	      0.0000000
      0.0757847	     -0.0505041	      0.0000000
      0.0888863	     -0.0470861	      0.0000000
      0.1006310	     -0.0434352	      0.0000000
      0.1109173	     -0.0396095	      0.0000000
      0.1196658	     -0.0356694	      0.0000000
      0.1268206	     -0.0316757	      0.0000000
      0.1323495	     -0.0276881	      0.0000000
      0.1362441	     -0.0237633	      0.0000000
      0.1385193	     -0.0199542	      0.0000000
      0.1392118	     -0.0163083	      0.0000000
      0.1383783	     -0.0128673	      0.0000000
      0.1360942	     -0.0096665	      0.0000000
      0.1324505	     -0.0067345	      0.0000000
      0.1275523	     -0.0040942	      0.0000000
      0.1215162	     -0.0017618	      0.0000000
      0.1144666	      0.0002517	      0.0000000
      0.1065339	      0.0019340	      0.0000000
      0.0978590	      0.0032686	      0.0000000
      0.0885870	      0.0042362	      0.0000000
      0.0788722	      0.0048126	      0.0000000
      0.0688717	      0.0049717	      0.0000000
      0.0587552	      0.0046861	      0.0000000
      0.0486835	      0.0039464	      0.0000000
      0.0388452	      0.0027626	      0.0000000
      0.0293769	      0.0012419	      0.0000000
      0.0205271	     -0.0004376	      0.0000000
      0.0123601	     -0.0017659	      0.0000000
      0.0054967	     -0.0021587	      0.0000000
      0.0000000	      0.0000000	      0.0000000
      0.0000000	      0.0000000	      0.0000000
     -0.0084543	     -0.0120642	      0.0000000
     -0.0131985	     -0.0193291	      0.0000000
     -0.0164117	     -0.0232574	      0.0000000
     -0.0200736	     -0.0247652	      0.0000000
     -0.0233526	     -0.0247234	      0.0000000
     -0.0270105	     -0.0237148	      0.0000000
     -0.0308950	     -0.0221811	      0.0000000
     -0.0352548	     -0.0204031	      0.0000000
     -0.0400525	     -0.0185665	      0.0000000
     -0.0453428	     -0.0167785	      0.0000000
     -0.0510914	     -0.0150973	      0.0000000
     -0.0572850	     -0.0135466	      0.0000000
     -0.0638859	     -0.0121295	      0.0000000
     -0.0708635	     -0.0108367	      0.0000000
     -0.0781833	     -0.0096537	      0.0000000
     -0.0858157	     -0.0085639	      0.0000000
     -0.0937325	     -0.0075526	      0.0000000
     -0.1019091	     -0.0066073	      0.0000000
     -0.1103227	     -0.0057190	      0.0000000
     -0.1189521	     -0.0048818	      0.0000000
     -0.1277775	     -0.0040933	      0.0000000
     -0.1367790	     -0.0033540	      0.0000000
     -0.1459363	     -0.0026669	      0.0000000
     -0.1552285	     -0.0020368	      0.0000000
     -0.1646332	     -0.0014705	      0.0000000
     -0.1741263	     -0.0009758	      0.0000000
     -0.1836815	     -0.0005619	      0.0000000
     -0.1932704	     -0.0002391	      0.0000000
     -0.2028613	     -0.0000186	      0.0000000
     -0.2124196	      0.0000877	      0.0000000
     -0.2219071	      0.0000667	      0.0000000
     -0.2312820	     -0.0000952	      0.0000000
     -0.2404981	     -0.0004122	      0.0000000
     -0.2495050	     -0.0008991	      0.0000000
     -0.2582479	     -0.0015709	      0.0000000
     -0.2666673	     -0.0024423	      0.0000000
     -0.2746993	     -0.0035279	      0.0000000
     -0.2822757	     -0.0048411	      0.0000000
     -0.2893244	     -0.0063941	      0.0000000
     -0.2957695	     -0.0081969	      0.0000000
     -0.3015328	     -0.0102572	      0.0000000
     -0.3065340	     -0.0125798	      0.0000000
     -0.3106922	     -0.0151661	      0.0000000
     -0.3139268	     -0.0180143	      0.0000000
     -0.3161583	     -0.0211186	      0.0000000
     -0.3173102	     -0.0244691	      0.0000000
     -0.3173093	     -0.0280516	      0.0000000
     -0.3160878	     -0.0318471	      0.0000000
     -0.3135840	     -0.0358317	      0.0000000
     -0.3097442	     -0.0399765	      0.0000000
     -0.3045240	     -0.0442472	      0.0000000
     -0.2978896	     -0.0486042	      0.0000000
     -0.2898193	     -0.0530031	      0.0000000
     -0.2803050	     -0.0573946	      0.0000000
     -0.2693536	     -0.0617255	      0.0000000
     -0.2569875	     -0.0659386	      0.0000000
     -0.2432463	     -0.0699744	      0.0000000
     -0.2281870	     -0.0737714	      0.0000000
     -0.2118845	     -0.0772676	      0.0000000
     -0.1944322	     -0.0804015	      0.0000000
     -0.1759415	     -0.0831137	      0.0000000
     -0.1565412	     -0.0853481	      0.0000000
     -0.1363773	     -0.0870535	      0.0000000
     -0.1156109	     -0.0881850	      0.0000000
     -0.0944177	     -0.0887055	      0.0000000
     -0.0729849	     -0.0885869	      0.0000000
     -0.0515098	     -0.0878119	      0.0000000
     -0.0301966	     -0.0863742	      0.0000000
     -0.0092529	     -0.0842807	      0.0000000
      0.0111122	     -0.0815509	      0.0000000
      0.0306935	     -0.0782189	      0.0000000
      0.0492939	     -0.0743307	      0.0000000
      0.0667281	     -0.0699420	      0.0000000
      0.0828266	     -0.0651196	      0.0000000
      0.0974384	     -0.0599384	      0.0000000
      0.1104342	     -0.0544788	      0.0000000
      0.1217087	     -0.0488257	      0.0000000
      0.1311825	     -0.0430654	      0.0000000
      0.1388026	     -0.0372833	      0.0000000
      0.1445438	     -0.0315620	      0.0000000
      0.1484072	     -0.0259790	      0.0000000
      0.1504201	     -0.0206054	      0.0000000
      0.1506341	     -0.0155042	      0.0000000
      0.1491231	     -0.0107301	      0.0000000
      0.1459811	     -0.0063288	      0.0000000
      0.1413202	     -0.0023379	      0.0000000
      0.1352671	      0.0012154	      0.0000000
      0.1279602	      0.0043112	      0.0000000
      0.1195489	      0.0069275	      0.0000000
      0.1101910	      0.0090406	      0.0000000
      0.1000508	      0.0106246	      0.0000000
      0.0893028	      0.0116483	      0.0000000
      0.0781239	      0.0120794	      0.0000000
      0.0667082	      0.0118847	      0.0000000
      0.0552400	      0.0110489	      0.0000000
      0.0439506	      0.0095762	      0.0000000
      0.0330171	      0.0075546	      0.0000000
      0.0227976	      0.0051294	      0.0000000
      0.0134310	      0.0026895	      0.0000000
      0.0057966	      0.0006468	      0.0000000
      0.0000000	      0.0000000	      0.0000000
      0.0000000	      0.0000000	      0.0000000
     -0.0085840	     -0.0123529	      0.0000000
     -0.0138304	     -0.0198661	      0.0000000
     -0.0179687	     -0.0239336	      0.0000000
     -0.0228523	     -0.0254355	      0.0000000
     -0.0275789	     -0.0252237	      0.0000000
     -0.0328127	     -0.0239090	      0.0000000
     -0.0383543	     -0.0219714	      0.0000000