# vtk DataFile Version 2.0
vw
ASCII
DATASET STRUCTURED_POINTS
DIMENSIONS  102  102    1
ORIGIN      0.0000000      0.0000000      0.0000000
SPACING      0.0100000      0.0100000      0.0100000
POINT_DATA  10404
VECTORS velocity float
      0.0000000	      0.0000000	      0.0000000
      0.0000000	      0.0000000	      0.0000000
      0.0000000	      0.0000000	      0.0000000
      0.0000000	      0.0000000	      0.0000000
      0.0000000	      0.0000000	      0.0000000
      0.0000000	      0.0000000	      0.0000000
      0.0000000	      0.0000000	      0.0000000
      0.0000000	      0.0000000	      0.0000000
      0.0000000	      0.0000000	      0.0000000
      0.0000000	      0.0000000	      0.0000000
      0.0000000	      0.0000000	      0.0000000
      0.0000000	      0.0000000	      0.0000000
      0.0000000	      0.0000000	      0.0000000
      0.0000000	      0.0000000	      0.0000000
      0.0000000	      0.0000000	      0.0000000
      0.0000000	      0.0000000	      0.0000000
      0.0000000	      0.0000000	      0.0000000
      0.0000000	      0.0000000	      0.0000000
      0.0000000	      0.0000000	      0.0000000
      0.0000000	      0.0000000	      0.0000000
      0.0000000	      0.0000000	      0.0000000
      0.0000000	      0.0000000	      0.0000000
      0.0000000	      0.0000000	      0.0000000
      0.0000000	      0.0000000	      0.0000000
      0.0000000	      0.0000000	      0.0000000
      0.0000000	      0.0000000	      0.0000000
      0.0000000	      0.0000000	      0.0000000
      0.0000000	      0.0000000	      0.0000000
      0.0000000	      0.0000000	      0.0000000
      0.0000000	      0.0000000	      0.0000000
      0.0000000	      0.0000000	      0.0000000
      0.0000000	      0.0000000	      0.0000000
      0.0000000	      0.0000000	      0.0000000
      0.0000000	      0.0000000	      0.0000000
      0.0000000	      0.0000000	      0.0000000
      0.0000000	      0.0000000	      0.0000000
      0.0000000	      0.0000000	      0.0000000
      0.0000000	      0.0000000	      0.0000000
      0.0000000	      0.0000000	      0.0000000
      0.0000000	      0.0000000	      0.0000000
      0.0000000	      0.0000000	      0.0000000
      0.0000000	      0.0000000	      0.0000000
      0.0000000	      0.0000000	      0.0000000
      0.0000000	      0.0000000	      0.0000000
      0.0000000	      0.0000000	      0.0000000
      0.0000000	      0.0000000	      0.0000000
      0.0000000	      0.0000000	      0.0000000
      0.0000000	      0.0000000	      0.0000000
      0.0000000	      0.0000000	      0.0000000
      0.0000000	      0.0000000	      0.0000000
      0.0000000	      0.0000000	      0.0000000
      0.0000000	      0.0000000	      0.0000000
      0.0000000	      0.0000000	      0.0000000
      0.0000000	      0.0000000	      0.0000000
      0.0000000	      0.0000000	      0.0000000
      0.0000000	      0.0000000	      0.0000000
      0.0000000	      0.0000000	      0.0000000
      0.0000000	      0.0000000	      0.0000000
      0.0000000	      0.0000000	      0.0000000
      0.0000000	      0.0000000	      0.0000000
      0.0000000	      0.0000000	      0.0000000
      0.0000000	      0.0000000	      0.0000000
      0.0000000	      0.0000000	      0.0000000
      0.0000000	      0.0000000	      0.0000000
      0.0000000	      0.0000000	      0.0000000
      0.0000000	      0.0000000	      0.0000000
      0.0000000	      0.0000000	      0.0000000
      0.0000000	      0.0000000	      0.0000000
      0.0000000	      0.0000000	      0.0000000
      0.0000000	      0.0000000	      0.0000000
      0.0000000	      0.0000000	      0.0000000
      0.0000000	      0.0000000	      0.0000000
      0.0000000	      0.0000000	      0.0000000
      0.0000000	      0.0000000	      0.0000000
      0.0000000	      0.0000000	      0.0000000
      0.0000000	      0.0000000	      0.0000000
      0.0000000	      0.0000000	      0.0000000
      0.0000000	      0.0000000	      0.0000000
      0.0000000	      0.0000000	      0.0000000
      0.0000000	      0.0000000	      0.0000000
      0.0000000	      0.0000000	      0.0000000
      0.0000000	      0.0000000	      0.0000000
      0.0000000	      0.0000000	      0.0000000
      0.0000000	      0.0000000	      0.0000000
      0.0000000	      0.0000000	      0.0000000
      0.0000000	      0.0000000	      0.0000000
      0.0000000	      0.0000000	      0.0000000
      0.0000000	      0.0000000	      0.0000000
      0.0000000	      0.0000000	      0.0000000
      0.0000000	      0.0000000	      0.0000000
      0.0000000	      0.0000000	      0.0000000
      0.0000000	      0.0000000	      0.0000000
      0.0000000	      0.0000000	      0.0000000
      0.0000000	      0.0000000	      0.0000000
      0.0000000	      0.0000000	      0.0000000
      0.0000000	      0.0000000	      0.0000000
      0.0000000	      0.0000000	      0.0000000
      0.0000000	      0.0000000	      0.0000000
      0.0000000	      0.0000000	      0.0000000
      0.0000000	      0.0000000	      0.0000000
      0.0000000	      0.0000000	      0.0000000
      0.0000000	      0.0000000	      0.0000000
      0.0000000	      0.0000000	      0.0000000
     -0.0122270	     -0.0152025	      0.0000000
     -0.0111357	     -0.0215731	      0.0000000
     -0.0010576	     -0.0248531	      0.0000000
      0.0102461	     -0.0262322	      0.0000000
      0.0236516	     -0.0263458	      0.0000000
      0.0363191	     -0.0256031	      0.0000000
      0.0478796	     -0.0242568	      0.0000000
      0.0572837	     -0.0225762	      0.0000000
      0.0643302	     -0.0207631	      0.0000000
      0.0688251	     -0.0189916	      0.0000000
      0.0709114	     -0.0173744	      0.0000000
      0.0707986	     -0.0159762	      0.0000000
      0.0687933	     -0.0148113	      0.0000000
      0.0651911	     -0.0138584	      0.0000000
      0.0602554	     -0.0130704	      0.0000000
      0.0541824	     -0.0123905	      0.0000000
      0.0470999	     -0.0117605	      0.0000000
      0.0390620	     -0.0111315	      0.0000000
      0.0300659	     -0.0104688	      0.0000000
      0.0200673	     -0.0097518	      0.0000000
      0.0089997	     -0.0089709	      0.0000000
     -0.0032138	     -0.0081196	      0.0000000
     -0.0166475	     -0.0071994	      0.0000000
     -0.0313580	     -0.0062228	      0.0000000
     -0.0473861	     -0.0052018	      0.0000000
     -0.0647539	     -0.0041492	      0.0000000
     -0.0834642	     -0.0030773	      0.0000000
     -0.1035013	     -0.0019983	      0.0000000
     -0.1248282	     -0.0009236	      0.0000000
     -0.1473926	      0.0001342	      0.0000000
     -0.1711149	      0.0011548	      0.0000000
     -0.1958971	      0.0021218	      0.0000000
     -0.2216237	      0.0030220	      0.0000000
     -0.2481613	      0.0038418	      0.0000000
     -0.2753604	      0.0045672	      0.0000000
     -0.3030556	      0.0051843	      0.0000000
     -0.3310671	      0.0056795	      0.0000000
     -0.3592016	      0.0060394	      0.0000000
     -0.3872543	      0.0062516	      0.0000000
     -0.4150104	      0.0063046	      0.0000000
     -0.4422464	      0.0061878	      0.0000000
     -0.4687326	      0.0058921	      0.0000000
     -0.4942341	      0.0054093	      0.0000000
     -0.5185135	      0.0047331	      0.0000000
     -0.5413314	      0.0038584	      0.0000000
     -0.5624503	      0.0027818	      0.0000000
     -0.5816329	      0.0015023	      0.0000000
     -0.5986524	      0.0000214	      0.0000000
     -0.6132770	     -0.0016486	      0.0000000
     -0.6253013	     -0.0034920	      0.0000000
     -0.6345194	     -0.0055365	      0.0000000
     -0.6407019	     -0.0078215	      0.0000000
     -0.6436130	     -0.0103301	      0.0000000
     -0.6430585	     -0.0130266	      0.0000000
     -0.6388836	     -0.0158789	      0.0000000
     -0.6309681	     -0.0188551	      0.0000000
     -0.6192290	     -0.0219228	      0.0000000
     -0.6036200	     -0.0250470	      0.0000000
     -0.5841355	     -0.0281895	      0.0000000
     -0.5608128	     -0.0313086	      0.0000000
     -0.5337364	     -0.0343586	      0.0000000
     -0.5030410	     -0.0372907	      0.0000000
     -0.4689154	     -0.0400528	      0.0000000
     -0.4316048	     -0.0425905	      0.0000000
     -0.3914137	     -0.0448484	      0.0000000
     -0.3487069	     -0.0467706	      0.0000000
     -0.3039099	     -0.0483029	      0.0000000
     -0.2575072	     -0.0493944	      0.0000000
     -0.2100397	     -0.0499994	      0.0000000
     -0.1620988	     -0.0500803	      0.0000000
     -0.1143189	     -0.0496092	      0.0000000
     -0.0673667	     -0.0485724	      0.0000000
     -0.0219261	     -0.0469715	      0.0000000
      0.0213180	     -0.0448345	      0.0000000
      0.0617018	     -0.0422106	      0.0000000
      0.0986214	     -0.0391440	      0.0000000
      0.1315290	     -0.0357068	      0.0000000
      0.1599638	     -0.0319918	      0.0000000
      0.1835723	     -0.0281003	      0.0000000
      0.2021235	     -0.0241463	      0.0000000
      0.2155239	     -0.0202463	      0.0000000
      0.2238239	     -0.0165134	      0.0000000
      0.2272147	     -0.0130530	      0.0000000
      0.2260274	     -0.0099593	      0.0000000
      0.2207113	     -0.0073053	      0.0000000
      0.2118261	     -0.0051446	      0.0000000
      0.1999800	     -0.0034531	      0.0000000
      0.1857593	     -0.0021739	      0.0000000
      0.1697282	     -0.0012868	      0.0000000
      0.1524373	     -0.0007578	      0.0000000
      0.1343881	     -0.0005463	      0.0000000
      0.1160427	     -0.0006118	      0.0000000
      0.0978061	     -0.0009219	      0.0000000
      0.0800702	     -0.0014696	      0.0000000
      0.0631920	     -0.0022692	      0.0000000
      0.0476043	     -0.0033884	      0.0000000
      0.0337199	     -0.0048469	      0.0000000
      0.0220553	     -0.0066802	      0.0000000
      0.0129822	     -0.0082238	      0.0000000
      0.0059411	     -0.0083699	      0.0000000
      0.0000000	      0.0000000	      0.0000000
      0.0000000	      0.0000000	      0.0000000
     -0.0123435	     -0.0249200	      0.0000000
     -0.0092802	     -0.0395238	      0.0000000
      0.0047510	     -0.0482611	      0.0000000
      0.0216723	     -0.0525243	      0.0000000
      0.0416266	     -0.0533638	      0.0000000
      0.0608205	     -0.0516650	      0.0000000
      0.0783021	     -0.0481555	      0.0000000
      0.0924809	     -0.0435488	      0.0000000
      0.1028612	     -0.0384347	      0.0000000
      0.1090611	     -0.0333008	      0.0000000
      0.1111755	     -0.0284857	      0.0000000
      0.1094409	     -0.0241913	      0.0000000
      0.1042508	     -0.0204870	      0.0000000
      0.0960091	     -0.0173400	      0.0000000
      0.0850892	     -0.0146431	      0.0000000
      0.0717833	     -0.0122648	      0.0000000
      0.0562883	     -0.0100586	      0.0000000
      0.0387053	     -0.0078923	      0.0000000
      0.0190528	     -0.0056666	      0.0000000
     -0.0027090	     -0.0033141	      0.0000000
     -0.0266563	     -0.0008041	      0.0000000
     -0.0528770	      0.0018730	      0.0000000
     -0.0814310	      0.0046940	      0.0000000
     -0.1123624	      0.0076257	      0.0000000
     -0.1456853	      0.0106322	      0.0000000
     -0.1813803	      0.0136744	      0.0000000
     -0.2193921	      0.0167120	      0.0000000
     -0.2596289	      0.0197038	      0.0000000
     -0.3019617	      0.0226086	      0.0000000
     -0.3462247	      0.0253814	      0.0000000
     -0.3922185	      0.0279752	      0.0000000
     -0.4397137	      0.0303479	      0.0000000
     -0.4884498	      0.0324603	      0.0000000
     -0.5381387	      0.0342741	      0.0000000
     -0.5884670	      0.0357522	      0.0000000
     -0.6390995	      0.0368595	      0.0000000
     -0.6896825	      0.0375633	      0.0000000
     -0.7398472	      0.0378337	      0.0000000
     -0.7892130	      0.0376440	      0.0000000
     -0.8373913	      0.0369713	      0.0000000
     -0.8839887	      0.0357962	      0.0000000
     -0.9286104	      0.0341035	      0.0000000
     -0.9708636	      0.0318821	      0.0000000
     -1.0103604	      0.0291250	      0.0000000
     -1.0467205	      0.0258296	      0.0000000
     -1.0795747	      0.0219975	      0.0000000
     -1.1085655	      0.0176351	      0.0000000
     -1.1333532	      0.0127530	      0.0000000
     -1.1536062	      0.0073708	      0.0000000
     -1.1690174	      0.0015110	      0.0000000
     -1.1792538	     -0.0048407	      0.0000000
     -1.1840472	     -0.0117159	      0.0000000
     -1.1831623	     -0.0190727	      0.0000000
     -1.1764095	     -0.0268221	      0.0000000
     -1.1636552	     -0.0348841	      0.0000000
     -1.1448120	     -0.0431771	      0.0000000
     -1.1198446	     -0.0516177	      0.0000000
     -1.0887701	     -0.0601172	      0.0000000
     -1.0516613	     -0.0685803	      0.0000000
     -1.0086492	     -0.0769044	      0.0000000
     -0.9599270	     -0.0849796	      0.0000000
     -0.9057528	     -0.0926888	      0.0000000
     -0.8464533	     -0.0999090	      0.0000000
     -0.7824270	     -0.1065124	      0.0000000
     -0.7141458	     -0.1123681	      0.0000000
     -0.6421577	     -0.1173454	      0.0000000
     -0.5670864	     -0.1213159	      0.0000000
     -0.4896310	     -0.1241580	      0.0000000
     -0.4105630	     -0.1257605	      0.0000000
     -0.3307216	     -0.1260281	      0.0000000
     -0.2510066	     -0.1248865	      0.0000000
     -0.1723672	     -0.1222890	      0.0000000
     -0.0957918	     -0.1182233	      0.0000000
     -0.0222789	     -0.1127209	      0.0000000
      0.0471494	     -0.1058702	      0.0000000
      0.1115378	     -0.0978059	      0.0000000
      0.1700123	     -0.0886836	      0.0000000
      0.2217967	     -0.0787131	      0.0000000
      0.2662426	     -0.0681410	      0.0000000
      0.3028539	     -0.0572425	      0.0000000
      0.3313206	     -0.0463151	      0.0000000
      0.3515335	     -0.0356571	      0.0000000
      0.3635914	     -0.0255598	      0.0000000
      0.3678126	     -0.0162930	      0.0000000
      0.3647095	     -0.0080881	      0.0000000
      0.3550058	     -0.0011129	      0.0000000
      0.3395303	      0.0046088	      0.0000000
      0.3192469	      0.0091244	      0.0000000
      0.2950875	      0.0124653	      0.0000000
      0.2679943	      0.0147041	      0.0000000
      0.2388558	      0.0159344	      0.0000000
      0.2085173	      0.0162546	      0.0000000
      0.1777498	      0.0157492	      0.0000000
      0.1473001	      0.0144545	      0.0000000
      0.1178429	      0.0123633	      0.0000000
      0.0901347	      0.0093778	      0.0000000
      0.0648004	      0.0054858	      0.0000000
      0.0427204	      0.0006739	      0.0000000
      0.0242185	     -0.0039985	      0.0000000
      0.0101908	     -0.0070327	      0.0000000
      0.0000000	      0.0000000	      0.0000000
      0.0000000	      0.0000000	      0.0000000
     -0.0109173	     -0.0338094	      0.0000000
     -0.0058531	     -0.0582453	      0.0000000
      0.0107371	     -0.0739149	      0.0000000
      0.0306096	     -0.0820081	      0.0000000
      0.0535915	     -0.0838371	      0.0000000
      0.0755221	     -0.0808075	      0.0000000
      0.0951404	     -0.0742662	      0.0000000
      0.1105931	     -0.0655001	      0.0000000
      0.1212020	     -0.0556238	      0.0000000
      0.1264573	     -0.0455459	      0.0000000
      0.1263827	     -0.0359195	      0.0000000
      0.1211815	     -0.0271451	      0.0000000
      0.1112422	     -0.0193829	      0.0000000
      0.0969819	     -0.0126027	      0.0000000
      0.0787870	     -0.0066408	      0.0000000
      0.0569798	     -0.0012649	      0.0000000
      0.0317712	      0.0037752	      0.0000000
      0.0033143	      0.0087044	      0.0000000
     -0.0283490	      0.0136962	      0.0000000
     -0.0632055	      0.0188648	      0.0000000
     -0.1012854	      0.0242646	      0.0000000
     -0.1426153	      0.0298917	      0.0000000
     -0.1872040	      0.0357031	      0.0000000
     -0.2350291	      0.0416370	      0.0000000
     -0.2860248	      0.0476178	      0.0000000
     -0.3400772	      0.0535627	      0.0000000
     -0.3970221	      0.0593860	      0.0000000
     -0.4566460	      0.0650006	      0.0000000
     -0.5186870	      0.0703203	      0.0000000
     -0.5828379	      0.0752588	      0.0000000
     -0.6487516	      0.0797309	      0.0000000
     -0.7160454	      0.0836571	      0.0000000
     -0.7843027	      0.0869632	      0.0000000
     -0.8530790	      0.0895802	      0.0000000
     -0.9219069	      0.0914447	      0.0000000
     -0.9903015	      0.0924996	      0.0000000
     -1.0577661	      0.0926945	      0.0000000
     -1.1237970	      0.0919865	      0.0000000
     -1.1878893	      0.0903406	      0.0000000
     -1.2495411	      0.0877294	      0.0000000
     -1.3082583	      0.0841340	      0.0000000
     -1.3635589	      0.0795433	      0.0000000
     -1.4149759	      0.0739541	      0.0000000
     -1.4620616	      0.0673710	      0.0000000
     -1.5043891	      0.0598059	      0.0000000
     -1.5415557	      0.0512778	      0.0000000
     -1.5731834	      0.0418124	      0.0000000
     -1.5989221	      0.0314406	      0.0000000
     -1.6184421	      0.0201977	      0.0000000
     -1.6314503	      0.0081183	      0.0000000
     -1.6376569	     -0.0047933	      0.0000000
     -1.6367918	     -0.0184994	      0.0000000
     -1.6287728	     -0.0328759	      0.0000000
     -1.6134979	     -0.0477849	      0.0000000
     -1.5909324	     -0.0630920	      0.0000000
     -1.5610785	     -0.0786606	      0.0000000
     -1.5239879	     -0.0943488	      0.0000000
     -1.4797609	     -0.1100074	      0.0000000
     -1.4285504	     -0.1254775	      0.0000000
     -1.3705634	     -0.1405900	      0.0000000
     -1.3060650	     -0.1551649	      0.0000000
     -1.2353806	     -0.1690124	      0.0000000
     -1.1588998	     -0.1819334	      0.0000000
     -1.0770792	     -0.1937216	      0.0000000
     -0.9904452	     -0.2041658	      0.0000000
     -0.8995972	     -0.2130535	      0.0000000
     -0.8052082	     -0.2201754	      0.0000000
     -0.7080265	     -0.2253301	      0.0000000
     -0.6088745	     -0.2283305	      0.0000000
     -0.5086464	     -0.2290112	      0.0000000
     -0.4083039	     -0.2272360	      0.0000000
     -0.3088690	     -0.2229077	      0.0000000
     -0.2114145	     -0.2159784	      0.0000000
     -0.1170545	     -0.2064592	      0.0000000
     -0.0269132	     -0.1944467	      0.0000000
      0.0578426	     -0.1801227	      0.0000000
      0.1361359	     -0.1637670	      0.0000000
      0.2069759	     -0.1457053	      0.0000000
      0.2694853	     -0.1263192	      0.0000000
      0.3229256	     -0.1060736	      0.0000000
      0.3667363	     -0.0854755	      0.0000000
      0.4005660	     -0.0650516	      0.0000000
      0.4242863	     -0.0453363	      0.0000000
      0.4380174	     -0.0268434	      0.0000000
      0.4421217	     -0.0100372	      0.0000000
      0.4372091	      0.0046852	      0.0000000
      0.4241314	      0.0171180	      0.0000000
      0.4040186	      0.0272395	      0.0000000
      0.3779702	      0.0350681	      0.0000000
      0.3471589	      0.0406933	      0.0000000
      0.3127312	      0.0442532	      0.0000000
      0.2758143	      0.0459042	      0.0000000
      0.2374686	      0.0457907	      0.0000000
      0.1987360	      0.0439968	      0.0000000
      0.1605597	      0.0405421	      0.0000000
      0.1239820	      0.0353346	      0.0000000
      0.0898241	      0.0283670	      0.0000000
      0.0593765	      0.0196520	      0.0000000
      0.0330974	      0.0102585	      0.0000000
      0.0133745	      0.0016202	      0.0000000
      0.0000000	      0.0000000	      0.0000000
      0.0000000	      0.0000000	      0.0000000
     -0.0093497	     -0.0459619	      0.0000000
     -0.0026744	     -0.0800767	      0.0000000
      0.0152948	     -0.1023488	      0.0000000
      0.0360705	     -0.1139017	      0.0000000
      0.0594345	     -0.1162864	      0.0000000
      0.0811340	     -0.1113995	      0.0000000
      0.0998326	     -0.1011845	      0.0000000
      0.1136003	     -0.0875144	      0.0000000
      0.1216965	     -0.0720371	      0.0000000
      0.1235510	     -0.0560973	      0.0000000
      0.1191328	     -0.0406745	      0.0000000
      0.1085911	     -0.0263762	      0.0000000
      0.0922611	     -0.0134656	      0.0000000
      0.0705037	     -0.0019213	      0.0000000
      0.0436532	      0.0084768	      0.0000000
      0.0120669	      0.0180178	      0.0000000
     -0.0240186	      0.0270291	      0.0000000
     -0.0644229	      0.0358131	      0.0000000
     -0.1090400	      0.0446094	      0.0000000
     -0.1578058	      0.0535663	      0.0000000
     -0.2106685	      0.0627500	      0.0000000
     -0.2675623	      0.0721466	      0.0000000
     -0.3283915	      0.0816838	      0.0000000
     -0.3930151	      0.0912538	      0.0000000
     -0.4612373	      0.1007284	      0.0000000
     -0.5328049	      0.1099695	      0.0000000
     -0.6074074	      0.1188356	      0.0000000
     -0.6846791	      0.1271859	      0.0000000
     -0.7642035	      0.1348835	      0.0000000
     -0.8455191	      0.1417962	      0.0000000
     -0.9281258	      0.1477991	      0.0000000
     -1.0114924	      0.1527773	      0.0000000
     -1.0950618	      0.1566268	      0.0000000
     -1.1782591	      0.1592549	      0.0000000
     -1.2604980	      0.1605808	      0.0000000
     -1.3411890	      0.1605364	      0.0000000
     -1.4197456	      0.1590669	      0.0000000
     -1.4955906	      0.1561307	      0.0000000
     -1.5681622	      0.1516994	      0.0000000
     -1.6369191	      0.1457578	      0.0000000
     -1.7013441	      0.1383033	      0.0000000
     -1.7609489	      0.1293455	      0.0000000
     -1.8152757	      0.1189050	      0.0000000
     -1.8639002	      0.1070132	      0.0000000
     -1.9064331	      0.0937108	      0.0000000
     -1.9425204	      0.0790474	      0.0000000
     -1.9718439	      0.0630799	      0.0000000
     -1.9941224	      0.0458705	      0.0000000
     -2.0091035	      0.0274866	      0.0000000
     -2.0165954	      0.0079955	      0.0000000
     -2.0163765	     -0.0125658	      0.0000000
     -2.0083662	     -0.0340534	      0.0000000
     -1.9925794	     -0.0562568	      0.0000000
     -1.9690236	     -0.0790117	      0.0000000
     -1.9377505	     -0.1021424	      0.0000000
     -1.8988386	     -0.1254707	      0.0000000
     -1.8524026	     -0.1488087	      0.0000000
     -1.7985938	     -0.1719586	      0.0000000
     -1.7376040	     -0.1947101	      0.0000000
     -1.6696680	     -0.2168395	      0.0000000
     -1.5950668	     -0.2381095	      0.0000000
     -1.5141316	     -0.2582694	      0.0000000
     -1.4272474	     -0.2770558	      0.0000000
     -1.3348573	     -0.2941949	      0.0000000
     -1.2374660	     -0.3094054	      0.0000000
     -1.1356439	     -0.3224023	      0.0000000
     -1.0300301	     -0.3329017	      0.0000000
     -0.9213348	     -0.3406281	      0.0000000
     -0.8103408	     -0.3453207	      0.0000000
     -0.6979031	     -0.3467435	      0.0000000
     -0.5849474	     -0.3446947	      0.0000000
     -0.4724657	     -0.3390185	      0.0000000
     -0.3615106	     -0.3296175	      0.0000000
     -0.2531848	     -0.3164687	      0.0000000
     -0.1486341	     -0.2996358	      0.0000000
     -0.0490224	     -0.2793100	      0.0000000
      0.0444448	     -0.2557988	      0.0000000
      0.1306142	     -0.2295514	      0.0000000
      0.2084498	     -0.2010884	      0.0000000
      0.2770133	     -0.1709966	      0.0000000
      0.3355313	     -0.1399799	      0.0000000
      0.3834070	     -0.1087774	      0.0000000
      0.4202499	     -0.0781596	      0.0000000
      0.4459215	     -0.0488945	      0.0000000
      0.4605211	     -0.0217035	      0.0000000
      0.4644567	      0.0027384	      0.0000000
      0.4583245	      0.0239088	      0.0000000
      0.4432623	      0.0416154	      0.0000000
      0.4203833	      0.0558206	      0.0000000
      0.3909428	      0.0665721	      0.0000000
      0.3562200	      0.0740100	      0.0000000
      0.3175165	      0.0783188	      0.0000000
      0.2760953	      0.0796856	      0.0000000
      0.2332247	      0.0782396	      0.0000000
      0.1900680	      0.0740316	      0.0000000
      0.1479216	      0.0669810	      0.0000000
      0.1078073	      0.0570401	      0.0000000
      0.0714312	      0.0441480	      0.0000000
      0.0394935	      0.0290602	      0.0000000
      0.0156164	      0.0128269	      0.0000000
      0.0000000	      0.0000000	      0.0000000
      0.0000000	      0.0000000	      0.0000000
     -0.0083973	     -0.0587634	      0.0000000
     -0.0009402	     -0.1023672	      0.0000000
      0.0172465	     -0.1307422	      0.0000000
      0.0373399	     -0.1450751	      0.0000000
      0.0591150	     -0.1472769	      0.0000000
      0.0783360	     -0.1397591	      0.0000000
      0.0937238	     -0.1250766	      0.0000000
      0.1033964	     -0.1056912	      0.0000000
      0.1066498	     -0.0837796	      0.0000000
      0.1029222	     -0.0611134	      0.0000000
      0.0921667	     -0.0389854	      0.0000000
      0.0744839	     -0.0182051	      0.0000000
      0.0501353	      0.0008811	      0.0000000
      0.0193872	      0.0182940	      0.0000000
     -0.0173517	      0.0341996	      0.0000000
     -0.0597680	      0.0489395	      0.0000000
     -0.1075806	      0.0629294	      0.0000000
     -0.1605930	      0.0765372	      0.0000000
     -0.2186420	      0.0900475	      0.0000000
     -0.2815809	      0.1036280	      0.0000000
     -0.3492486	      0.1173324	      0.0000000
     -0.4214498	      0.1311149	      0.0000000
     -0.4979425	      0.1448575	      0.0000000
     -0.5784293	      0.1583974	      0.0000000
     -0.6625528	      0.1715465	      0.0000000
     -0.7498959	      0.1841060	      0.0000000
     -0.8399849	      0.1958765	      0.0000000
     -0.9322951	      0.2066637	      0.0000000
     -1.0262578	      0.2162833	      0.0000000
     -1.1212688	      0.2245632	      0.0000000
     -1.2166972	      0.2313464	      0.0000000
     -1.3118948	      0.2364935	      0.0000000
     -1.4062044	      0.2398839	      0.0000000
     -1.4989688	      0.2414162	      0.0000000
     -1.5895388	      0.2410093	      0.0000000
     -1.6772817	      0.2386021	      0.0000000
     -1.7615875	      0.2341536	      0.0000000
     -1.8418758	      0.2276423	      0.0000000
     -1.9175998	      0.2190652	      0.0000000
     -1.9882510	      0.2084370	      0.0000000
     -2.0533619	      0.1957886	      0.0000000
     -2.1125076	      0.1811656	      0.0000000
     -2.1653075	      0.1646271	      0.0000000
     -2.2114246	      0.1462437	      0.0000000
     -2.2505657	      0.1260961	      0.0000000
     -2.2824805	      0.1042736	      0.0000000
     -2.3069594	      0.0808725	      0.0000000
     -2.3238331	      0.0559934	      0.0000000
     -2.3329660	      0.0297437	      0.0000000
     -2.3342935	      0.0022183	      0.0000000
     -2.3276687	     -0.0264689	      0.0000000
     -2.3132314	     -0.0560737	      0.0000000
     -2.2910169	     -0.0863616	      0.0000000
     -2.2611067	     -0.1171455	      0.0000000
     -2.2235918	     -0.1482243	      0.0000000
     -2.1785834	     -0.1793906	      0.0000000
     -2.1262138	     -0.2104242	      0.0000000
     -2.0666397	     -0.2410914	      0.0000000
     -2.0000458	     -0.2711427	      0.0000000
     -1.9266485	     -0.3003115	      0.0000000
     -1.8466998	     -0.3283137	      0.0000000
     -1.7604923	     -0.3548472	      0.0000000
     -1.6683635	     -0.3795932	      0.0000000
     -1.5707015	     -0.4022178	      0.0000000
     -1.4679493	     -0.4223754	      0.0000000
     -1.3606106	     -0.4397131	      0.0000000
     -1.2492534	     -0.4538762	      0.0000000
     -1.1345146	     -0.4645159	      0.0000000
     -1.0171027	     -0.4712978	      0.0000000
     -0.8977991	     -0.4739128	      0.0000000
     -0.7774585	     -0.4720887	      0.0000000
     -0.6570066	     -0.4656043	      0.0000000
     -0.5374363	     -0.4543047	      0.0000000
     -0.4198005	     -0.4381172	      0.0000000
     -0.3052040	     -0.4170725	      0.0000000
     -0.1947909	     -0.3913212	      0.0000000
     -0.0897483	     -0.3611723	      0.0000000
      0.0087434	     -0.3270961	      0.0000000
      0.0994235	     -0.2896927	      0.0000000
      0.1812747	     -0.2497462	      0.0000000
      0.2533069	     -0.2080894	      0.0000000
      0.3147309	     -0.1656383	      0.0000000
      0.3649206	     -0.1233935	      0.0000000
      0.4034843	     -0.0823676	      0.0000000
      0.4302534	     -0.0435516	      0.0000000
      0.4453834	     -0.0078852	      0.0000000
      0.4491817	      0.0237220	      0.0000000
      0.4425328	      0.0507686	      0.0000000
      0.4265041	      0.0731053	      0.0000000
      0.4023016	      0.0906834	      0.0000000
      0.3712317	      0.1035947	      0.0000000
      0.3346685	      0.1120097	      0.0000000
      0.2939908	      0.1161259	      0.0000000
      0.2506220	      0.1160959	      0.0000000
      0.2058976	      0.1119832	      0.0000000
      0.1613340	      0.1037014	      0.0000000
      0.1181582	      0.0911091	      0.0000000
      0.0784503	      0.0739840	      0.0000000
      0.0431810	      0.0525504	      0.0000000
      0.0168546	      0.0271983	      0.0000000
      0.0000000	      0.0000000	      0.0000000
      0.0000000	      0.0000000	      0.0000000
     -0.0080346	     -0.0724193	      0.0000000
     -0.0006727	     -0.1249867	      0.0000000
      0.0165132	     -0.1585135	      0.0000000
      0.0344263	     -0.1745301	      0.0000000
      0.0528558	     -0.1754951	      0.0000000
      0.0676598	     -0.1643944	      0.0000000
      0.0776987	     -0.1444075	      0.0000000