# vtk DataFile Version 2.0
vw
ASCII
DATASET STRUCTURED_POINTS
DIMENSIONS  102  102    1
ORIGIN      0.0000000      0.0000000      0.0000000
SPACING      0.0100000      0.0100000      0.0100000
POINT_DATA  10404
VECTORS velocity float
      0.0000000	      0.0000000	      0.0000000
      0.0000000	      0.0000000	      0.0000000
      0.0000000	      0.0000000	      0.0000000
      0.0000000	      0.0000000	      0.0000000
      0.0000000	      0.0000000	      0.0000000
      0.0000000	      0.0000000	      0.0000000
      0.0000000	      0.0000000	      0.0000000
      0.0000000	      0.0000000	      0.0000000
      0.0000000	      0.0000000	      0.0000000
      0.0000000	      0.0000000	      0.0000000
      0.0000000	      0.0000000	      0.0000000
      0.0000000	      0.0000000	      0.0000000
      0.0000000	      0.0000000	      0.0000000
      0.0000000	      0.0000000	      0.0000000
      0.0000000	      0.0000000	      0.0000000
      0.0000000	      0.0000000	      0.0000000
      0.0000000	      0.0000000	      0.0000000
      0.0000000	      0.0000000	      0.0000000
      0.0000000	      0.0000000	      0.0000000
      0.0000000	      0.0000000	      0.0000000
      0.0000000	      0.0000000	      0.0000000
      0.0000000	      0.0000000	      0.0000000
      0.0000000	      0.0000000	      0.0000000
      0.0000000	      0.0000000	      0.0000000
      0.0000000	      0.0000000	      0.0000000
      0.0000000	      0.0000000	      0.0000000
      0.0000000	      0.0000000	      0.0000000
      0.0000000	      0.0000000	      0.0000000
      0.0000000	      0.0000000	      0.0000000
      0.0000000	      0.0000000	      0.0000000
      0.0000000	      0.0000000	      0.0000000
      0.0000000	      0.0000000	      0.0000000
      0.0000000	      0.0000000	      0.0000000
      0.0000000	      0.0000000	      0.0000000
      0.0000000	      0.0000000	      0.0000000
      0.0000000	      0.0000000	      0.0000000
      0.0000000	      0.0000000	      0.0000000
      0.0000000	      0.0000000	      0.0000000
      0.0000000	      0.0000000	      0.0000000
      0.0000000	      0.0000000	      0.0000000
      0.0000000	      0.0000000	      0.0000000
      0.0000000	      0.0000000	      0.0000000
      0.0000000	      0.0000000	      0.0000000
      0.0000000	      0.0000000	      0.0000000
      0.0000000	      0.0000000	      0.0000000
      0.0000000	      0.0000000	      0.0000000
      0.0000000	      0.0000000	      0.0000000
      0.0000000	      0.0000000	      0.0000000
      0.0000000	      0.0000000	      0.0000000
      0.0000000	      0.0000000	      0.0000000
      0.0000000	      0.0000000	      0.0000000
      0.0000000	      0.0000000	      0.0000000
      0.0000000	      0.0000000	      0.0000000
      0.0000000	      0.0000000	      0.0000000
      0.0000000	      0.0000000	      0.0000000
      0.0000000	      0.0000000	      0.0000000
      0.0000000	      0.0000000	      0.0000000
      0.0000000	      0.0000000	      0.0000000
      0.0000000	      0.0000000	      0.0000000
      0.0000000	      0.0000000	      0.0000000
      0.0000000	      0.0000000	      0.0000000
      0.0000000	      0.0000000	      0.0000000
      0.0000000	      0.0000000	      0.0000000
      0.0000000	      0.0000000	      0.0000000
      0.0000000	      0.0000000	      0.0000000
      0.0000000	      0.0000000	      0.0000000
      0.0000000	      0.0000000	      0.0000000
      0.0000000	      0.0000000	      0.0000000
      0.0000000	      0.0000000	      0.0000000
      0.0000000	      0.0000000	      0.0000000
      0.0000000	      0.0000000	      0.0000000
      0.0000000	      0.0000000	      0.0000000
      0.0000000	      0.0000000	      0.0000000
      0.0000000	      0.0000000	      0.0000000
      0.0000000	      0.0000000	      0.0000000
      0.0000000	      0.0000000	      0.0000000
      0.0000000	      0.0000000	      0.0000000
      0.0000000	      0.0000000	      0.0000000
      0.0000000	      0.0000000	      0.0000000
      0.0000000	      0.0000000	      0.0000000
      0.0000000	      0.0000000	      0.0000000
      0.0000000	      0.0000000	      0.0000000
      0.0000000	      0.0000000	      0.0000000
      0.0000000	      0.0000000	      0.0000000
      0.0000000	      0.0000000	      0.0000000
      0.0000000	      0.0000000	      0.0000000
      0.0000000	      0.0000000	      0.0000000
      0.0000000	      0.0000000	      0.0000000
      0.0000000	      0.0000000	      0.0000000
      0.0000000	      0.0000000	      0.0000000
      0.0000000	      0.0000000	      0.0000000
      0.0000000	      0.0000000	      0.0000000
      0.0000000	      0.0000000	      0.0000000
      0.0000000	      0.0000000	      0.0000000
      0.0000000	      0.0000000	      0.0000000
      0.0000000	      0.0000000	      0.0000000
      0.0000000	      0.0000000	      0.0000000
      0.0000000	      0.0000000	      0.0000000
      0.0000000	      0.0000000	      0.0000000
      0.0000000	      0.0000000	      0.0000000
      0.0000000	      0.0000000	      0.0000000
      0.0000000	      0.0000000	      0.0000000
      0.0000000	      0.0000000	      0.0000000
     -0.0012638	     -0.0017323	      0.0000000
     -0.0013349	     -0.0021989	      0.0000000
     -0.0007901	     -0.0023339	      0.0000000
     -0.0005128	     -0.0022468	      0.0000000
     -0.0002058	     -0.0021173	      0.0000000
     -0.0002081	     -0.0019605	      0.0000000
     -0.0003383	     -0.0018147	      0.0000000
     -0.0007258	     -0.0016806	      0.0000000
     -0.0012579	     -0.0015654	      0.0000000
     -0.0019804	     -0.0014668	      0.0000000
     -0.0028232	     -0.0013844	      0.0000000
     -0.0037999	     -0.0013149	      0.0000000
     -0.0048686	     -0.0012562	      0.0000000
     -0.0060323	     -0.0012053	      0.0000000
     -0.0072676	     -0.0011602	      0.0000000
     -0.0085753	     -0.0011187	      0.0000000
     -0.0099436	     -0.0010793	      0.0000000
     -0.0113735	     -0.0010410	      0.0000000
     -0.0128598	     -0.0010030	      0.0000000
     -0.0144036	     -0.0009648	      0.0000000
     -0.0160023	     -0.0009265	      0.0000000
     -0.0176563	     -0.0008882	      0.0000000
     -0.0193637	     -0.0008502	      0.0000000
     -0.0211233	     -0.0008130	      0.0000000
     -0.0229323	     -0.0007772	      0.0000000
     -0.0247874	     -0.0007434	      0.0000000
     -0.0266841	     -0.0007124	      0.0000000
     -0.0286170	     -0.0006848	      0.0000000
     -0.0305794	     -0.0006615	      0.0000000
     -0.0325637	     -0.0006431	      0.0000000
     -0.0345609	     -0.0006304	      0.0000000
     -0.0365611	     -0.0006242	      0.0000000
     -0.0385528	     -0.0006253	      0.0000000
     -0.0405239	     -0.0006344	      0.0000000
     -0.0424607	     -0.0006523	      0.0000000
     -0.0443486	     -0.0006798	      0.0000000
     -0.0461717	     -0.0007176	      0.0000000
     -0.0479131	     -0.0007665	      0.0000000
     -0.0495549	     -0.0008270	      0.0000000
     -0.0510785	     -0.0008999	      0.0000000
     -0.0524642	     -0.0009855	      0.0000000
     -0.0536919	     -0.0010842	      0.0000000
     -0.0547413	     -0.0011964	      0.0000000
     -0.0555917	     -0.0013219	      0.0000000
     -0.0562228	     -0.0014606	      0.0000000
     -0.0566148	     -0.0016122	      0.0000000
     -0.0567489	     -0.0017758	      0.0000000
     -0.0566076	     -0.0019506	      0.0000000
     -0.0561751	     -0.0021354	      0.0000000
     -0.0554378	     -0.0023286	      0.0000000
     -0.0543845	     -0.0025285	      0.0000000
     -0.0530070	     -0.0027332	      0.0000000
     -0.0513002	     -0.0029404	      0.0000000
     -0.0492628	     -0.0031475	      0.0000000
     -0.0468974	     -0.0033519	      0.0000000
     -0.0442109	     -0.0035506	      0.0000000
     -0.0412148	     -0.0037405	      0.0000000
     -0.0379253	     -0.0039184	      0.0000000
     -0.0343635	     -0.0040811	      0.0000000
     -0.0305553	     -0.0042253	      0.0000000
     -0.0265312	     -0.0043481	      0.0000000
     -0.0223262	     -0.0044465	      0.0000000
     -0.0179794	     -0.0045181	      0.0000000
     -0.0135334	     -0.0045606	      0.0000000
     -0.0090337	     -0.0045725	      0.0000000
     -0.0045280	     -0.0045527	      0.0000000
     -0.0000652	     -0.0045008	      0.0000000
      0.0043053	     -0.0044169	      0.0000000
      0.0085350	     -0.0043021	      0.0000000
      0.0125771	     -0.0041577	      0.0000000
      0.0163870	     -0.0039860	      0.0000000
      0.0199240	     -0.0037896	      0.0000000
      0.0231515	     -0.0035719	      0.0000000
      0.0260380	     -0.0033364	      0.0000000
      0.0285574	     -0.0030871	      0.0000000
      0.0306902	     -0.0028282	      0.0000000
      0.0324223	     -0.0025638	      0.0000000
      0.0337467	     -0.0022982	      0.0000000
      0.0346617	     -0.0020351	      0.0000000
      0.0351725	     -0.0017783	      0.0000000
      0.0352882	     -0.0015310	      0.0000000
      0.0350249	     -0.0012961	      0.0000000
      0.0344002	     -0.0010759	      0.0000000
      0.0334389	     -0.0008721	      0.0000000
      0.0321629	     -0.0006853	      0.0000000
      0.0306025	     -0.0005165	      0.0000000
      0.0287811	     -0.0003660	      0.0000000
      0.0267353	     -0.0002353	      0.0000000
      0.0244890	     -0.0001247	      0.0000000
      0.0220878	     -0.0000374	      0.0000000
      0.0195559	      0.0000262	      0.0000000
      0.0169537	      0.0000592	      0.0000000
      0.0143085	      0.0000602	      0.0000000
      0.0117043	      0.0000151	      0.0000000
      0.0091777	     -0.0000766	      0.0000000
      0.0068423	     -0.0002409	      0.0000000
      0.0047529	     -0.0004596	      0.0000000
      0.0030223	     -0.0007605	      0.0000000
      0.0017158	     -0.0009963	      0.0000000
      0.0007301	     -0.0010585	      0.0000000
      0.0000000	      0.0000000	      0.0000000
      0.0000000	      0.0000000	      0.0000000
     -0.0014897	     -0.0026121	      0.0000000
     -0.0017324	     -0.0035021	      0.0000000
     -0.0014312	     -0.0037750	      0.0000000
     -0.0013737	     -0.0035951	      0.0000000
     -0.0013433	     -0.0032741	      0.0000000
     -0.0017201	     -0.0028618	      0.0000000
     -0.0023384	     -0.0024538	      0.0000000
     -0.0033488	     -0.0020615	      0.0000000
     -0.0046278	     -0.0017127	      0.0000000
     -0.0062218	     -0.0014044	      0.0000000
     -0.0080439	     -0.0011406	      0.0000000
     -0.0101003	     -0.0009135	      0.0000000
     -0.0123341	     -0.0007193	      0.0000000
     -0.0147401	     -0.0005497	      0.0000000
     -0.0172844	     -0.0003994	      0.0000000
     -0.0199617	     -0.0002623	      0.0000000
     -0.0227535	     -0.0001343	      0.0000000
     -0.0256570	     -0.0000116	      0.0000000
     -0.0286627	      0.0001077	      0.0000000
     -0.0317692	      0.0002251	      0.0000000
     -0.0349712	      0.0003408	      0.0000000
     -0.0382667	      0.0004546	      0.0000000
     -0.0416507	      0.0005655	      0.0000000
     -0.0451192	      0.0006721	      0.0000000
     -0.0486657	      0.0007726	      0.0000000
     -0.0522827	      0.0008652	      0.0000000
     -0.0559607	      0.0009477	      0.0000000
     -0.0596888	      0.0010178	      0.0000000
     -0.0634535	      0.0010734	      0.0000000
     -0.0672401	      0.0011119	      0.0000000
     -0.0710314	      0.0011312	      0.0000000
     -0.0748084	      0.0011288	      0.0000000
     -0.0785500	      0.0011023	      0.0000000
     -0.0822332	      0.0010494	      0.0000000
     -0.0858332	      0.0009677	      0.0000000
     -0.0893229	      0.0008550	      0.0000000
     -0.0926737	      0.0007090	      0.0000000
     -0.0958552	      0.0005276	      0.0000000
     -0.0988353	      0.0003090	      0.0000000
     -0.1015806	      0.0000514	      0.0000000
     -0.1040565	     -0.0002464	      0.0000000
     -0.1062277	     -0.0005854	      0.0000000
     -0.1080584	     -0.0009659	      0.0000000
     -0.1095129	     -0.0013879	      0.0000000
     -0.1105564	     -0.0018505	      0.0000000
     -0.1111550	     -0.0023522	      0.0000000
     -0.1112768	     -0.0028906	      0.0000000
     -0.1108926	     -0.0034626	      0.0000000
     -0.1099762	     -0.0040641	      0.0000000
     -0.1085054	     -0.0046906	      0.0000000
     -0.1064623	     -0.0053365	      0.0000000
     -0.1038342	     -0.0059956	      0.0000000
     -0.1006142	     -0.0066608	      0.0000000
     -0.0968014	     -0.0073244	      0.0000000
     -0.0924020	     -0.0079779	      0.0000000
     -0.0874297	     -0.0086123	      0.0000000
     -0.0819055	     -0.0092182	      0.0000000
     -0.0758588	     -0.0097859	      0.0000000
     -0.0693270	     -0.0103056	      0.0000000
     -0.0623556	     -0.0107677	      0.0000000
     -0.0549979	     -0.0111630	      0.0000000
     -0.0473149	     -0.0114828	      0.0000000
     -0.0393743	     -0.0117194	      0.0000000
     -0.0312499	     -0.0118665	      0.0000000
     -0.0230203	     -0.0119189	      0.0000000
     -0.0147681	     -0.0118731	      0.0000000
     -0.0065785	     -0.0117276	      0.0000000
      0.0014629	     -0.0114827	      0.0000000
      0.0092705	     -0.0111410	      0.0000000
      0.0167617	     -0.0107069	      0.0000000
      0.0238579	     -0.0101863	      0.0000000
      0.0304859	     -0.0095874	      0.0000000
      0.0365796	     -0.0089195	      0.0000000
      0.0420810	     -0.0081936	      0.0000000
      0.0469412	     -0.0074214	      0.0000000
      0.0511217	     -0.0066154	      0.0000000
      0.0545940	     -0.0057882	      0.0000000
      0.0573410	     -0.0049525	      0.0000000
      0.0593551	     -0.0041204	      0.0000000
      0.0606404	     -0.0033033	      0.0000000
      0.0612087	     -0.0025117	      0.0000000
      0.0610836	     -0.0017549	      0.0000000
      0.0602927	     -0.0010407	      0.0000000
      0.0588756	     -0.0003751	      0.0000000
      0.0568706	      0.0002385	      0.0000000
      0.0543285	      0.0007958	      0.0000000
      0.0512941	      0.0012939	      0.0000000
      0.0478300	      0.0017277	      0.0000000
      0.0439851	      0.0020942	      0.0000000
      0.0398371	      0.0023851	      0.0000000
      0.0354390	      0.0025958	      0.0000000
      0.0308915	      0.0027102	      0.0000000
      0.0262544	      0.0027213	      0.0000000
      0.0216626	      0.0025987	      0.0000000
      0.0171850	      0.0023390	      0.0000000
      0.0129989	      0.0018930	      0.0000000
      0.0091742	      0.0012974	      0.0000000
      0.0059097	      0.0005048	      0.0000000
      0.0032351	     -0.0002349	      0.0000000
      0.0012849	     -0.0008102	      0.0000000
      0.0000000	      0.0000000	      0.0000000
      0.0000000	      0.0000000	      0.0000000
     -0.0016167	     -0.0030197	      0.0000000
     -0.0021080	     -0.0043172	      0.0000000
     -0.0022027	     -0.0046908	      0.0000000
     -0.0026031	     -0.0043791	      0.0000000
     -0.0031267	     -0.0037793	      0.0000000
     -0.0041398	     -0.0029995	      0.0000000
     -0.0054963	     -0.0022019	      0.0000000
     -0.0073415	     -0.0014206	      0.0000000
     -0.0095552	     -0.0007123	      0.0000000
     -0.0121755	     -0.0000771	      0.0000000
     -0.0151104	      0.0004733	      0.0000000
     -0.0183565	      0.0009519	      0.0000000
     -0.0218495	      0.0013641	      0.0000000
     -0.0255760	      0.0017252	      0.0000000
     -0.0294952	      0.0020446	      0.0000000
     -0.0335956	      0.0023347	      0.0000000
     -0.0378535	      0.0026030	      0.0000000
     -0.0422613	      0.0028571	      0.0000000
     -0.0468057	      0.0031009	      0.0000000
     -0.0514816	      0.0033375	      0.0000000
     -0.0562802	      0.0035674	      0.0000000
     -0.0611961	      0.0037902	      0.0000000
     -0.0662209	      0.0040040	      0.0000000
     -0.0713465	      0.0042061	      0.0000000
     -0.0765624	      0.0043930	      0.0000000
     -0.0818566	      0.0045609	      0.0000000
     -0.0872143	      0.0047055	      0.0000000
     -0.0926191	      0.0048222	      0.0000000
     -0.0980514	      0.0049066	      0.0000000
     -0.1034898	      0.0049539	      0.0000000
     -0.1089097	      0.0049592	      0.0000000
     -0.1142846	      0.0049180	      0.0000000
     -0.1195849	      0.0048254	      0.0000000
     -0.1247789	      0.0046767	      0.0000000
     -0.1298322	      0.0044673	      0.0000000
     -0.1347081	      0.0041927	      0.0000000
     -0.1393677	      0.0038485	      0.0000000
     -0.1437698	      0.0034307	      0.0000000
     -0.1478714	      0.0029357	      0.0000000
     -0.1516279	      0.0023603	      0.0000000
     -0.1549932	      0.0017022	      0.0000000
     -0.1579205	      0.0009599	      0.0000000
     -0.1603627	      0.0001327	      0.0000000
     -0.1622729	     -0.0007784	      0.0000000
     -0.1636056	     -0.0017716	      0.0000000
     -0.1643168	     -0.0028432	      0.0000000
     -0.1643658	     -0.0039879	      0.0000000
     -0.1637152	     -0.0051992	      0.0000000
     -0.1623318	     -0.0064686	      0.0000000
     -0.1601880	     -0.0077864	      0.0000000
     -0.1572617	     -0.0091414	      0.0000000
     -0.1535377	     -0.0105207	      0.0000000
     -0.1490083	     -0.0119101	      0.0000000
     -0.1436738	     -0.0132937	      0.0000000
     -0.1375436	     -0.0146546	      0.0000000
     -0.1306365	     -0.0159748	      0.0000000
     -0.1229813	     -0.0172354	      0.0000000
     -0.1146170	     -0.0184171	      0.0000000
     -0.1055931	     -0.0195003	      0.0000000
     -0.0959696	     -0.0204659	      0.0000000
     -0.0858165	     -0.0212955	      0.0000000
     -0.0752135	     -0.0219719	      0.0000000
     -0.0642492	     -0.0224797	      0.0000000
     -0.0530202	     -0.0228058	      0.0000000
     -0.0416299	     -0.0229398	      0.0000000
     -0.0301867	     -0.0228743	      0.0000000
     -0.0188029	     -0.0226055	      0.0000000
     -0.0075924	     -0.0221336	      0.0000000
      0.0033311	     -0.0214626	      0.0000000
      0.0138560	     -0.0206008	      0.0000000
      0.0238757	     -0.0195598	      0.0000000
      0.0332904	     -0.0183549	      0.0000000
      0.0420084	     -0.0170046	      0.0000000
      0.0499484	     -0.0155298	      0.0000000
      0.0570405	     -0.0139540	      0.0000000
      0.0632278	     -0.0123018	      0.0000000
      0.0684665	     -0.0105986	      0.0000000
      0.0727274	     -0.0088697	      0.0000000
      0.0759941	     -0.0071399	      0.0000000
      0.0782656	     -0.0054330	      0.0000000
      0.0795520	     -0.0037706	      0.0000000
      0.0798783	     -0.0021726	      0.0000000
      0.0792775	     -0.0006561	      0.0000000
      0.0777973	      0.0007649	      0.0000000
      0.0754879	      0.0020808	      0.0000000
      0.0724153	      0.0032813	      0.0000000
      0.0686408	      0.0043580	      0.0000000
      0.0642468	      0.0053003	      0.0000000
      0.0593028	      0.0060996	      0.0000000
      0.0539113	      0.0067399	      0.0000000
      0.0481498	      0.0072089	      0.0000000
      0.0421493	      0.0074789	      0.0000000
      0.0359960	      0.0075326	      0.0000000
      0.0298624	      0.0073232	      0.0000000
      0.0238410	      0.0068383	      0.0000000
      0.0181581	      0.0060125	      0.0000000
      0.0128952	      0.0048898	      0.0000000
      0.0083333	      0.0034238	      0.0000000
      0.0044951	      0.0018962	      0.0000000
      0.0017366	      0.0004231	      0.0000000
      0.0000000	      0.0000000	      0.0000000
      0.0000000	      0.0000000	      0.0000000
     -0.0016948	     -0.0034627	      0.0000000
     -0.0024817	     -0.0049255	      0.0000000
     -0.0031067	     -0.0052352	      0.0000000
     -0.0041518	     -0.0046723	      0.0000000
     -0.0054503	     -0.0037037	      0.0000000
     -0.0073152	     -0.0024805	      0.0000000
     -0.0096152	     -0.0012204	      0.0000000
     -0.0124749	      0.0000196	      0.0000000
     -0.0157802	      0.0011558	      0.0000000
     -0.0195583	      0.0021823	      0.0000000
     -0.0237163	      0.0030799	      0.0000000
     -0.0282427	      0.0038653	      0.0000000
     -0.0330696	      0.0045458	      0.0000000
     -0.0381766	      0.0051435	      0.0000000
     -0.0435187	      0.0056724	      0.0000000
     -0.0490786	      0.0061509	      0.0000000
     -0.0548283	      0.0065906	      0.0000000
     -0.0607557	      0.0070031	      0.0000000
     -0.0668434	      0.0073945	      0.0000000
     -0.0730821	      0.0077695	      0.0000000
     -0.0794590	      0.0081291	      0.0000000
     -0.0859648	      0.0084727	      0.0000000
     -0.0925869	      0.0087971	      0.0000000
     -0.0993132	      0.0090984	      0.0000000
     -0.1061283	      0.0093710	      0.0000000
     -0.1130158	      0.0096089	      0.0000000
     -0.1199560	      0.0098052	      0.0000000
     -0.1269270	      0.0099531	      0.0000000
     -0.1339039	      0.0100451	      0.0000000
     -0.1408594	      0.0100739	      0.0000000
     -0.1477629	      0.0100321	      0.0000000
     -0.1545812	      0.0099120	      0.0000000
     -0.1612783	      0.0097064	      0.0000000
     -0.1678153	      0.0094079	      0.0000000
     -0.1741507	      0.0090091	      0.0000000
     -0.1802401	      0.0085032	      0.0000000
     -0.1860368	      0.0078835	      0.0000000
     -0.1914917	      0.0071438	      0.0000000
     -0.1965536	      0.0062787	      0.0000000
     -0.2011696	      0.0052835	      0.0000000
     -0.2052852	      0.0041548	      0.0000000
     -0.2088454	      0.0028904	      0.0000000
     -0.2117948	      0.0014901	      0.0000000
     -0.2140784	     -0.0000446	      0.0000000
     -0.2156429	     -0.0017097	      0.0000000
     -0.2164375	     -0.0034990	      0.0000000
     -0.2164149	     -0.0054035	      0.0000000
     -0.2155321	     -0.0074123	      0.0000000
     -0.2137515	     -0.0095117	      0.0000000
     -0.2110414	     -0.0116859	      0.0000000
     -0.2073769	     -0.0139168	      0.0000000
     -0.2027412	     -0.0161839	      0.0000000
     -0.1971257	     -0.0184642	      0.0000000
     -0.1905316	     -0.0207328	      0.0000000
     -0.1829703	     -0.0229629	      0.0000000
     -0.1744640	     -0.0251258	      0.0000000
     -0.1650462	     -0.0271918	      0.0000000
     -0.1547626	     -0.0291303	      0.0000000
     -0.1436706	     -0.0309106	      0.0000000
     -0.1318399	     -0.0325025	      0.0000000
     -0.1193519	     -0.0338768	      0.0000000
     -0.1062993	     -0.0350062	      0.0000000
     -0.0927855	     -0.0358661	      0.0000000
     -0.0789233	     -0.0364354	      0.0000000
     -0.0648339	     -0.0366970	      0.0000000
     -0.0506449	     -0.0366385	      0.0000000
     -0.0364890	     -0.0362530	      0.0000000
     -0.0225018	     -0.0355394	      0.0000000
     -0.0088195	     -0.0345026	      0.0000000
      0.0044234	     -0.0331542	      0.0000000
      0.0170963	     -0.0315120	      0.0000000
      0.0290759	     -0.0295993	      0.0000000
      0.0402481	     -0.0274440	      0.0000000
      0.0505102	     -0.0250790	      0.0000000
      0.0597720	     -0.0225405	      0.0000000
      0.0679585	     -0.0198675	      0.0000000
      0.0750096	     -0.0170999	      0.0000000
      0.0808824	     -0.0142786	      0.0000000
      0.0855494	     -0.0114435	      0.0000000
      0.0890014	     -0.0086331	      0.0000000
      0.0912431	     -0.0058835	      0.0000000
      0.0922973	     -0.0032277	      0.0000000
      0.0921978	     -0.0006950	      0.0000000
      0.0909962	      0.0016892	      0.0000000
      0.0887508	      0.0039058	      0.0000000
      0.0855382	      0.0059365	      0.0000000
      0.0814317	      0.0077654	      0.0000000
      0.0765293	      0.0093743	      0.0000000
      0.0709167	      0.0107467	      0.0000000
      0.0647166	      0.0118577	      0.0000000
      0.0580247	      0.0126856	      0.0000000
      0.0509970	      0.0131903	      0.0000000
      0.0437379	      0.0133433	      0.0000000
      0.0364506	      0.0130819	      0.0000000
      0.0292407	      0.0123826	      0.0000000
      0.0223779	      0.0111641	      0.0000000
      0.0159473	      0.0094639	      0.0000000
      0.0103147	      0.0072230	      0.0000000
      0.0055037	      0.0047074	      0.0000000
      0.0020781	      0.0020044	      0.0000000
      0.0000000	      0.0000000	      0.0000000
      0.0000000	      0.0000000	      0.0000000
     -0.0018250	     -0.0035526	      0.0000000
     -0.0029699	     -0.0049536	      0.0000000
     -0.0041983	     -0.0050217	      0.0000000
     -0.0059954	     -0.0040743	      0.0000000
     -0.0081952	     -0.0026244	      0.0000000
     -0.0110525	     -0.0008637	      0.0000000
     -0.0144381	      0.0009450	      0.0000000
     -0.0184478	      0.0027212	      0.0000000
     -0.0229690	      0.0043570	      0.0000000
     -0.0280135	      0.0058400	      0.0000000
     -0.0334885	      0.0071444	      0.0000000
     -0.0393732	      0.0082902	      0.0000000
     -0.0455978	      0.0092870	      0.0000000
     -0.0521356	      0.0101638	      0.0000000
     -0.0589386	      0.0109394	      0.0000000
     -0.0659844	      0.0116387	      0.0000000
     -0.0732416	      0.0122775	      0.0000000
     -0.0806934	      0.0128717	      0.0000000
     -0.0883190	      0.0134298	      0.0000000
     -0.0961047	      0.0139582	      0.0000000
     -0.1040340	      0.0144583	      0.0000000
     -0.1120932	      0.0149290	      0.0000000
     -0.1202657	      0.0153662	      0.0000000
     -0.1285350	      0.0157642	      0.0000000
     -0.1368818	      0.0161153	      0.0000000
     -0.1452849	      0.0164110	      0.0000000
     -0.1537204	      0.0166419	      0.0000000
     -0.1621618	      0.0167983	      0.0000000
     -0.1705797	      0.0168698	      0.0000000
     -0.1789419	      0.0168462	      0.0000000
     -0.1872133	      0.0167169	      0.0000000
     -0.1953558	      0.0164717	      0.0000000
     -0.2033284	      0.0161000	      0.0000000
     -0.2110871	      0.0155917	      0.0000000
     -0.2185850	      0.0149367	      0.0000000
     -0.2257727	      0.0141252	      0.0000000
     -0.2325977	      0.0131482	      0.0000000
     -0.2390054	      0.0119970	      0.0000000
     -0.2449388	      0.0106644	      0.0000000
     -0.2503389	      0.0091439	      0.0000000
     -0.2551455	      0.0074311	      0.0000000
     -0.2592975	      0.0055233	      0.0000000
     -0.2627333	      0.0034203	      0.0000000
     -0.2653922	      0.0011250	      0.0000000
     -0.2672150	     -0.0013568	      0.0000000
     -0.2681451	     -0.0040151	      0.0000000
     -0.2681304	     -0.0068368	      0.0000000
     -0.2671233	     -0.0098056	      0.0000000
     -0.2650820	     -0.0129020	      0.0000000
     -0.2619714	     -0.0161033	      0.0000000
     -0.2577636	     -0.0193834	      0.0000000
     -0.2524392	     -0.0227130	      0.0000000
     -0.2459882	     -0.0260597	      0.0000000
     -0.2384106	     -0.0293881	      0.0000000
     -0.2297176	     -0.0326600	      0.0000000
     -0.2199324	     -0.0358350	      0.0000000
     -0.2090903	     -0.0388708	      0.0000000
     -0.1972398	     -0.0417243	      0.0000000
     -0.1844428	     -0.0443518	      0.0000000
     -0.1707743	     -0.0467102	      0.0000000
     -0.1563227	     -0.0487580	      0.0000000
     -0.1411892	     -0.0504560	      0.0000000
     -0.1254872	     -0.0517689	      0.0000000
     -0.1093411	     -0.0526656	      0.0000000
     -0.0928852	     -0.0531208	      0.0000000
     -0.0762619	     -0.0531158	      0.0000000
     -0.0596203	     -0.0526389	      0.0000000
     -0.0431135	     -0.0516868	      0.0000000
     -0.0268968	     -0.0502645	      0.0000000
     -0.0111247	     -0.0483860	      0.0000000
      0.0040512	     -0.0460742	      0.0000000
      0.0184852	     -0.0433611	      0.0000000
      0.0320414	     -0.0402856	      0.0000000
      0.0445957	     -0.0368928	      0.0000000
      0.0560376	     -0.0332337	      0.0000000
      0.0662730	     -0.0293633	      0.0000000
      0.0752244	     -0.0253388	      0.0000000
      0.0828333	     -0.0212188	      0.0000000
      0.0890591	     -0.0170612	      0.0000000
      0.0938821	     -0.0129224	      0.0000000
      0.0972990	     -0.0088557	      0.0000000
      0.0993278	     -0.0049108	      0.0000000
      0.1000002	     -0.0011324	      0.0000000
      0.0993686	      0.0024391	      0.0000000
      0.0974960	      0.0057717	      0.0000000
      0.0944666	      0.0088368	      0.0000000
      0.0903629	      0.0116086	      0.0000000
      0.0852950	      0.0140591	      0.0000000
      0.0793612	      0.0161619	      0.0000000
      0.0727003	      0.0178815	      0.0000000
      0.0654226	      0.0191850	      0.0000000
      0.0577047	      0.0200194	      0.0000000
      0.0496648	      0.0203423	      0.0000000
      0.0415327	      0.0200764	      0.0000000
      0.0334251	      0.0191815	      0.0000000
      0.0256516	      0.0175620	      0.0000000
      0.0183050	      0.0152327	      0.0000000
      0.0118298	      0.0121187	      0.0000000
      0.0062592	      0.0084237	      0.0000000
      0.0023240	      0.0041807	      0.0000000
      0.0000000	      0.0000000	      0.0000000
      0.0000000	      0.0000000	      0.0000000
     -0.0019859	     -0.0034769	      0.0000000
     -0.0035374	     -0.0045660	      0.0000000
     -0.0054388	     -0.0041831	      0.0000000
     -0.0080774	     -0.0026830	      0.0000000
     -0.0112839	     -0.0006270	      0.0000000
     -0.0152456	      0.0017646	      0.0000000
     -0.0198296	      0.0041930	      0.0000000