# vtk DataFile Version 2.0
vw
ASCII
DATASET STRUCTURED_POINTS
DIMENSIONS  102  102    1
ORIGIN      0.0000000      0.0000000      0.0000000
SPACING      0.0100000      0.0100000      0.0100000
POINT_DATA  10404
VECTORS velocity float
      0.0000000	      0.0000000	      0.0000000
      0.0000000	      0.0000000	      0.0000000
      0.0000000	      0.0000000	      0.0000000
      0.0000000	      0.0000000	      0.0000000
      0.0000000	      0.0000000	      0.0000000
      0.0000000	      0.0000000	      0.0000000
      0.0000000	      0.0000000	      0.0000000
      0.0000000	      0.0000000	      0.0000000
      0.0000000	      0.0000000	      0.0000000
      0.0000000	      0.0000000	      0.0000000
      0.0000000	      0.0000000	      0.0000000
      0.0000000	      0.0000000	      0.0000000
      0.0000000	      0.0000000	      0.0000000
      0.0000000	      0.0000000	      0.0000000
      0.0000000	      0.0000000	      0.0000000
      0.0000000	      0.0000000	      0.0000000
      0.0000000	      0.0000000	      0.0000000
      0.0000000	      0.0000000	      0.0000000
      0.0000000	      0.0000000	      0.0000000
      0.0000000	      0.0000000	      0.0000000
      0.0000000	      0.0000000	      0.0000000
      0.0000000	      0.0000000	      0.0000000
      0.0000000	      0.0000000	      0.0000000
      0.0000000	      0.0000000	      0.0000000
      0.0000000	      0.0000000	      0.0000000
      0.0000000	      0.0000000	      0.0000000
      0.0000000	      0.0000000	      0.0000000
      0.0000000	      0.0000000	      0.0000000
      0.0000000	      0.0000000	      0.0000000
      0.0000000	      0.0000000	      0.0000000
      0.0000000	      0.0000000	      0.0000000
      0.0000000	      0.0000000	      0.0000000
      0.0000000	      0.0000000	      0.0000000
      0.0000000	      0.0000000	      0.0000000
      0.0000000	      0.0000000	      0.0000000
      0.0000000	      0.0000000	      0.0000000
      0.0000000	      0.0000000	      0.0000000
      0.0000000	      0.0000000	      0.0000000
      0.0000000	      0.0000000	      0.0000000
      0.0000000	      0.0000000	      0.0000000
      0.0000000	      0.0000000	      0.0000000
      0.0000000	      0.0000000	      0.0000000
      0.0000000	      0.0000000	      0.0000000
      0.0000000	      0.0000000	      0.0000000
      0.0000000	      0.0000000	      0.0000000
      0.0000000	      0.0000000	      0.0000000
      0.0000000	      0.0000000	      0.0000000
      0.0000000	      0.0000000	      0.0000000
      0.0000000	      0.0000000	      0.0000000
      0.0000000	      0.0000000	      0.0000000
      0.0000000	      0.0000000	      0.0000000
      0.0000000	      0.0000000	      0.0000000
      0.0000000	      0.0000000	      0.0000000
      0.0000000	      0.0000000	      0.0000000
      0.0000000	      0.0000000	      0.0000000
      0.0000000	      0.0000000	      0.0000000
      0.0000000	      0.0000000	      0.0000000
      0.0000000	      0.0000000	      0.0000000
      0.0000000	      0.0000000	      0.0000000
      0.0000000	      0.0000000	      0.0000000
      0.0000000	      0.0000000	      0.0000000
      0.0000000	      0.0000000	      0.0000000
      0.0000000	      0.0000000	      0.0000000
      0.0000000	      0.0000000	      0.0000000
      0.0000000	      0.0000000	      0.0000000
      0.0000000	      0.0000000	      0.0000000
      0.0000000	      0.0000000	      0.0000000
      0.0000000	      0.0000000	      0.0000000
      0.0000000	      0.0000000	      0.0000000
      0.0000000	      0.0000000	      0.0000000
      0.0000000	      0.0000000	      0.0000000
      0.0000000	      0.0000000	      0.0000000
      0.0000000	      0.0000000	      0.0000000
      0.0000000	      0.0000000	      0.0000000
      0.0000000	      0.0000000	      0.0000000
      0.0000000	      0.0000000	      0.0000000
      0.0000000	      0.0000000	      0.0000000
      0.0000000	      0.0000000	      0.0000000
      0.0000000	      0.0000000	      0.0000000
      0.0000000	      0.0000000	      0.0000000
      0.0000000	      0.0000000	      0.0000000
      0.0000000	      0.0000000	      0.0000000
      0.0000000	      0.0000000	      0.0000000
      0.0000000	      0.0000000	      0.0000000
      0.0000000	      0.0000000	      0.0000000
      0.0000000	      0.0000000	      0.0000000
      0.0000000	      0.0000000	      0.0000000
      0.0000000	      0.0000000	      0.0000000
      0.0000000	      0.0000000	      0.0000000
      0.0000000	      0.0000000	      0.0000000
      0.0000000	      0.0000000	      0.0000000
      0.0000000	      0.0000000	      0.0000000
      0.0000000	      0.0000000	      0.0000000
      0.0000000	      0.0000000	      0.0000000
      0.0000000	      0.0000000	      0.0000000
      0.0000000	      0.0000000	      0.0000000
      0.0000000	      0.0000000	      0.0000000
      0.0000000	      0.0000000	      0.0000000
      0.0000000	      0.0000000	      0.0000000
      0.0000000	      0.0000000	      0.0000000
      0.0000000	      0.0000000	      0.0000000
      0.0000000	      0.0000000	      0.0000000
      0.0000000	      0.0000000	      0.0000000
     -0.0011465	     -0.0016031	      0.0000000
     -0.0012210	     -0.0020132	      0.0000000
     -0.0007648	     -0.0021130	      0.0000000
     -0.0005902	     -0.0020075	      0.0000000
     -0.0004237	     -0.0018681	      0.0000000
     -0.0005669	     -0.0017077	      0.0000000
     -0.0008498	     -0.0015629	      0.0000000
     -0.0013819	     -0.0014325	      0.0000000
     -0.0020567	     -0.0013234	      0.0000000
     -0.0029094	     -0.0012319	      0.0000000
     -0.0038740	     -0.0011574	      0.0000000
     -0.0049585	     -0.0010962	      0.0000000
     -0.0061235	     -0.0010461	      0.0000000
     -0.0073694	     -0.0010038	      0.0000000
     -0.0086741	     -0.0009673	      0.0000000
     -0.0100372	     -0.0009344	      0.0000000
     -0.0114477	     -0.0009038	      0.0000000
     -0.0129058	     -0.0008742	      0.0000000
     -0.0144065	     -0.0008449	      0.0000000
     -0.0159504	     -0.0008157	      0.0000000
     -0.0175351	     -0.0007864	      0.0000000
     -0.0191606	     -0.0007572	      0.0000000
     -0.0208250	     -0.0007284	      0.0000000
     -0.0225268	     -0.0007005	      0.0000000
     -0.0242630	     -0.0006741	      0.0000000
     -0.0260304	     -0.0006498	      0.0000000
     -0.0278242	     -0.0006283	      0.0000000
     -0.0296392	     -0.0006102	      0.0000000
     -0.0314687	     -0.0005962	      0.0000000
     -0.0333051	     -0.0005871	      0.0000000
     -0.0351398	     -0.0005835	      0.0000000
     -0.0369632	     -0.0005861	      0.0000000
     -0.0387648	     -0.0005954	      0.0000000
     -0.0405329	     -0.0006122	      0.0000000
     -0.0422554	     -0.0006369	      0.0000000
     -0.0439189	     -0.0006702	      0.0000000
     -0.0455095	     -0.0007126	      0.0000000
     -0.0470125	     -0.0007645	      0.0000000
     -0.0484127	     -0.0008263	      0.0000000
     -0.0496943	     -0.0008983	      0.0000000
     -0.0508413	     -0.0009808	      0.0000000
     -0.0518374	     -0.0010740	      0.0000000
     -0.0526662	     -0.0011778	      0.0000000
     -0.0533116	     -0.0012922	      0.0000000
     -0.0537578	     -0.0014169	      0.0000000
     -0.0539895	     -0.0015515	      0.0000000
     -0.0539923	     -0.0016954	      0.0000000
     -0.0537533	     -0.0018477	      0.0000000
     -0.0532607	     -0.0020073	      0.0000000
     -0.0525048	     -0.0021730	      0.0000000
     -0.0514779	     -0.0023435	      0.0000000
     -0.0501746	     -0.0025169	      0.0000000
     -0.0485924	     -0.0026916	      0.0000000
     -0.0467314	     -0.0028654	      0.0000000
     -0.0445952	     -0.0030363	      0.0000000
     -0.0421906	     -0.0032018	      0.0000000
     -0.0395280	     -0.0033596	      0.0000000
     -0.0366216	     -0.0035072	      0.0000000
     -0.0334893	     -0.0036420	      0.0000000
     -0.0301527	     -0.0037617	      0.0000000
     -0.0266372	     -0.0038637	      0.0000000
     -0.0229715	     -0.0039460	      0.0000000
     -0.0191874	     -0.0040065	      0.0000000
     -0.0153194	     -0.0040436	      0.0000000
     -0.0114046	     -0.0040560	      0.0000000
     -0.0074814	     -0.0040429	      0.0000000
     -0.0035894	     -0.0040038	      0.0000000
      0.0002314	     -0.0039389	      0.0000000
      0.0039415	     -0.0038487	      0.0000000
      0.0075027	     -0.0037346	      0.0000000
      0.0108786	     -0.0035979	      0.0000000
      0.0140354	     -0.0034407	      0.0000000
      0.0169424	     -0.0032654	      0.0000000
      0.0195728	     -0.0030746	      0.0000000
      0.0219038	     -0.0028714	      0.0000000
      0.0239173	     -0.0026588	      0.0000000
      0.0255998	     -0.0024401	      0.0000000
      0.0269428	     -0.0022184	      0.0000000
      0.0279421	     -0.0019968	      0.0000000
      0.0285989	     -0.0017781	      0.0000000
      0.0289173	     -0.0015651	      0.0000000
      0.0289075	     -0.0013600	      0.0000000
      0.0285806	     -0.0011650	      0.0000000
      0.0279541	     -0.0009817	      0.0000000
      0.0270440	     -0.0008112	      0.0000000
      0.0258737	     -0.0006547	      0.0000000
      0.0244607	     -0.0005126	      0.0000000
      0.0228349	     -0.0003866	      0.0000000
      0.0210153	     -0.0002774	      0.0000000
      0.0190408	     -0.0001881	      0.0000000
      0.0169324	     -0.0001197	      0.0000000
      0.0147427	     -0.0000785	      0.0000000
      0.0124969	     -0.0000661	      0.0000000
      0.0102691	     -0.0000952	      0.0000000
      0.0080938	     -0.0001662	      0.0000000
      0.0060706	     -0.0003020	      0.0000000
      0.0042511	     -0.0004862	      0.0000000
      0.0027323	     -0.0007429	      0.0000000
      0.0015757	     -0.0009394	      0.0000000
      0.0006824	     -0.0009773	      0.0000000
      0.0000000	      0.0000000	      0.0000000
      0.0000000	      0.0000000	      0.0000000
     -0.0013715	     -0.0024021	      0.0000000
     -0.0016440	     -0.0031605	      0.0000000
     -0.0014778	     -0.0033410	      0.0000000
     -0.0015932	     -0.0031031	      0.0000000
     -0.0017911	     -0.0027480	      0.0000000
     -0.0024063	     -0.0023203	      0.0000000
     -0.0032812	     -0.0019110	      0.0000000
     -0.0045398	     -0.0015272	      0.0000000
     -0.0060632	     -0.0011941	      0.0000000
     -0.0078833	     -0.0009062	      0.0000000
     -0.0099162	     -0.0006659	      0.0000000
     -0.0121606	     -0.0004642	      0.0000000
     -0.0145617	     -0.0002964	      0.0000000
     -0.0171106	     -0.0001538	      0.0000000
     -0.0197747	     -0.0000310	      0.0000000
     -0.0225468	      0.0000784	      0.0000000
     -0.0254091	      0.0001784	      0.0000000
     -0.0283575	      0.0002728	      0.0000000
     -0.0313831	      0.0003635	      0.0000000
     -0.0344835	      0.0004520	      0.0000000
     -0.0376533	      0.0005384	      0.0000000
     -0.0408901	      0.0006226	      0.0000000
     -0.0441888	      0.0007035	      0.0000000
     -0.0475449	      0.0007799	      0.0000000
     -0.0509516	      0.0008500	      0.0000000
     -0.0544014	      0.0009119	      0.0000000
     -0.0578845	      0.0009636	      0.0000000
     -0.0613899	      0.0010031	      0.0000000
     -0.0649044	      0.0010281	      0.0000000
     -0.0684133	      0.0010367	      0.0000000
     -0.0719002	      0.0010267	      0.0000000
     -0.0753467	      0.0009962	      0.0000000
     -0.0787331	      0.0009433	      0.0000000
     -0.0820381	      0.0008660	      0.0000000
     -0.0852388	      0.0007627	      0.0000000
     -0.0883112	      0.0006317	      0.0000000
     -0.0912299	      0.0004716	      0.0000000
     -0.0939687	      0.0002810	      0.0000000
     -0.0965002	      0.0000590	      0.0000000
     -0.0987965	     -0.0001954	      0.0000000
     -0.1008294	     -0.0004827	      0.0000000
     -0.1025704	     -0.0008031	      0.0000000
     -0.1039911	     -0.0011564	      0.0000000
     -0.1050637	     -0.0015422	      0.0000000
     -0.1057614	     -0.0019595	      0.0000000
     -0.1060585	     -0.0024068	      0.0000000
     -0.1059310	     -0.0028819	      0.0000000
     -0.1053575	     -0.0033818	      0.0000000
     -0.1043191	     -0.0039034	      0.0000000
     -0.1028003	     -0.0044425	      0.0000000
     -0.1007893	     -0.0049947	      0.0000000
     -0.0982785	     -0.0055547	      0.0000000
     -0.0952647	     -0.0061170	      0.0000000
     -0.0917503	     -0.0066752	      0.0000000
     -0.0877426	     -0.0072226	      0.0000000
     -0.0832551	     -0.0077522	      0.0000000
     -0.0783073	     -0.0082566	      0.0000000
     -0.0729249	     -0.0087281	      0.0000000
     -0.0671400	     -0.0091592	      0.0000000
     -0.0609911	     -0.0095424	      0.0000000
     -0.0545225	     -0.0098706	      0.0000000
     -0.0477847	     -0.0101371	      0.0000000
     -0.0408331	     -0.0103360	      0.0000000
     -0.0337282	     -0.0104621	      0.0000000
     -0.0265341	     -0.0105116	      0.0000000
     -0.0193178	     -0.0104817	      0.0000000
     -0.0121485	     -0.0103711	      0.0000000
     -0.0050961	     -0.0101798	      0.0000000
      0.0017701	     -0.0099095	      0.0000000
      0.0083823	     -0.0095637	      0.0000000
      0.0146758	     -0.0091467	      0.0000000
      0.0205903	     -0.0086644	      0.0000000
      0.0260703	     -0.0081239	      0.0000000
      0.0310669	     -0.0075331	      0.0000000
      0.0355375	     -0.0069011	      0.0000000
      0.0394478	     -0.0062371	      0.0000000
      0.0427708	     -0.0055509	      0.0000000
      0.0454885	     -0.0048522	      0.0000000
      0.0475900	     -0.0041503	      0.0000000
      0.0490738	     -0.0034545	      0.0000000
      0.0499445	     -0.0027730	      0.0000000
      0.0502160	     -0.0021136	      0.0000000
      0.0499059	     -0.0014830	      0.0000000
      0.0490417	     -0.0008873	      0.0000000
      0.0476512	     -0.0003308	      0.0000000
      0.0457732	      0.0001825	      0.0000000
      0.0434415	      0.0006493	      0.0000000
      0.0407068	      0.0010638	      0.0000000
      0.0376088	      0.0014223	      0.0000000
      0.0342130	      0.0017162	      0.0000000
      0.0305650	      0.0019401	      0.0000000
      0.0267525	      0.0020788	      0.0000000
      0.0228293	      0.0021250	      0.0000000
      0.0189143	      0.0020515	      0.0000000
      0.0150711	      0.0018548	      0.0000000
      0.0114557	      0.0014918	      0.0000000
      0.0081337	      0.0009953	      0.0000000
      0.0052785	      0.0003248	      0.0000000
      0.0029204	     -0.0002969	      0.0000000
      0.0011759	     -0.0007688	      0.0000000
      0.0000000	      0.0000000	      0.0000000
      0.0000000	      0.0000000	      0.0000000
     -0.0015133	     -0.0027322	      0.0000000
     -0.0020628	     -0.0037977	      0.0000000
     -0.0023345	     -0.0039998	      0.0000000
     -0.0029612	     -0.0035715	      0.0000000
     -0.0037757	     -0.0029006	      0.0000000
     -0.0050957	     -0.0020861	      0.0000000
     -0.0067804	     -0.0012820	      0.0000000
     -0.0089456	     -0.0005151	      0.0000000
     -0.0114736	      0.0001638	      0.0000000
     -0.0143861	      0.0007591	      0.0000000
     -0.0175927	      0.0012627	      0.0000000
     -0.0210812	      0.0016898	      0.0000000
     -0.0247890	      0.0020479	      0.0000000
     -0.0286980	      0.0023531	      0.0000000
     -0.0327686	      0.0026155	      0.0000000
     -0.0369867	      0.0028477	      0.0000000
     -0.0413291	      0.0030573	      0.0000000
     -0.0457870	      0.0032520	      0.0000000
     -0.0503470	      0.0034357	      0.0000000
     -0.0550030	      0.0036114	      0.0000000
     -0.0597461	      0.0037796	      0.0000000
     -0.0645700	      0.0039400	      0.0000000
     -0.0694661	      0.0040906	      0.0000000
     -0.0744257	      0.0042289	      0.0000000
     -0.0794378	      0.0043515	      0.0000000
     -0.0844899	      0.0044547	      0.0000000
     -0.0895671	      0.0045343	      0.0000000
     -0.0946526	      0.0045861	      0.0000000
     -0.0997271	      0.0046061	      0.0000000
     -0.1047691	      0.0045898	      0.0000000
     -0.1097550	      0.0045333	      0.0000000
     -0.1146590	      0.0044326	      0.0000000
     -0.1194534	      0.0042839	      0.0000000
     -0.1241087	      0.0040836	      0.0000000
     -0.1285934	      0.0038284	      0.0000000
     -0.1328747	      0.0035152	      0.0000000
     -0.1369183	      0.0031411	      0.0000000
     -0.1406888	      0.0027039	      0.0000000
     -0.1441497	      0.0022015	      0.0000000
     -0.1472640	      0.0016327	      0.0000000
     -0.1499943	      0.0009964	      0.0000000
     -0.1523031	      0.0002927	      0.0000000
     -0.1541535	     -0.0004777	      0.0000000
     -0.1555095	     -0.0013134	      0.0000000
     -0.1563365	     -0.0022121	      0.0000000
     -0.1566020	     -0.0031703	      0.0000000
     -0.1562758	     -0.0041831	      0.0000000
     -0.1553312	     -0.0052446	      0.0000000
     -0.1537450	     -0.0063478	      0.0000000
     -0.1514983	     -0.0074843	      0.0000000
     -0.1485775	     -0.0086449	      0.0000000
     -0.1449741	     -0.0098190	      0.0000000
     -0.1406857	     -0.0109951	      0.0000000
     -0.1357167	     -0.0121606	      0.0000000
     -0.1300784	     -0.0133019	      0.0000000
     -0.1237898	     -0.0144049	      0.0000000
     -0.1168773	     -0.0154547	      0.0000000
     -0.1093759	     -0.0164362	      0.0000000
     -0.1013283	     -0.0173342	      0.0000000
     -0.0927857	     -0.0181340	      0.0000000
     -0.0838068	     -0.0188211	      0.0000000
     -0.0744580	     -0.0193824	      0.0000000
     -0.0648126	     -0.0198058	      0.0000000
     -0.0549500	     -0.0200812	      0.0000000
     -0.0449549	     -0.0202004	      0.0000000
     -0.0349158	     -0.0201578	      0.0000000
     -0.0249244	     -0.0199501	      0.0000000
     -0.0150734	     -0.0195772	      0.0000000
     -0.0054558	     -0.0190419	      0.0000000
      0.0038375	     -0.0183502	      0.0000000
      0.0127185	     -0.0175109	      0.0000000
      0.0211048	     -0.0165353	      0.0000000
      0.0289201	     -0.0154371	      0.0000000
      0.0360962	     -0.0142322	      0.0000000
      0.0425731	     -0.0129380	      0.0000000
      0.0483009	     -0.0115734	      0.0000000
      0.0532397	     -0.0101576	      0.0000000
      0.0573608	     -0.0087102	      0.0000000
      0.0606455	     -0.0072506	      0.0000000
      0.0630871	     -0.0057975	      0.0000000
      0.0646875	     -0.0043681	      0.0000000
      0.0654609	     -0.0029791	      0.0000000
      0.0654278	     -0.0016447	      0.0000000
      0.0646214	     -0.0003785	      0.0000000
      0.0630772	      0.0008092	      0.0000000
      0.0608453	      0.0019088	      0.0000000
      0.0579724	      0.0029110	      0.0000000
      0.0545249	      0.0038042	      0.0000000
      0.0505591	      0.0045785	      0.0000000
      0.0461613	      0.0052173	      0.0000000
      0.0413974	      0.0057075	      0.0000000
      0.0363811	      0.0060221	      0.0000000
      0.0311890	      0.0061441	      0.0000000
      0.0259731	      0.0060309	      0.0000000
      0.0208177	      0.0056708	      0.0000000
      0.0159224	      0.0050064	      0.0000000
      0.0113633	      0.0040769	      0.0000000
      0.0073868	      0.0028435	      0.0000000
      0.0040179	      0.0015554	      0.0000000
      0.0015697	      0.0003168	      0.0000000
      0.0000000	      0.0000000	      0.0000000
      0.0000000	      0.0000000	      0.0000000
     -0.0016135	     -0.0030556	      0.0000000
     -0.0024875	     -0.0041821	      0.0000000
     -0.0033239	     -0.0042376	      0.0000000
     -0.0046325	     -0.0034971	      0.0000000
     -0.0062620	     -0.0024177	      0.0000000
     -0.0084755	     -0.0011389	      0.0000000
     -0.0111462	      0.0001336	      0.0000000
     -0.0143680	      0.0013528	      0.0000000
     -0.0180279	      0.0024439	      0.0000000
     -0.0221356	      0.0034080	      0.0000000
     -0.0265992	      0.0042315	      0.0000000
     -0.0313976	      0.0049348	      0.0000000
     -0.0364639	      0.0055283	      0.0000000
     -0.0417726	      0.0060354	      0.0000000
     -0.0472791	      0.0064714	      0.0000000
     -0.0529634	      0.0068552	      0.0000000
     -0.0587977	      0.0071987	      0.0000000
     -0.0647681	      0.0075136	      0.0000000
     -0.0708570	      0.0078059	      0.0000000
     -0.0770538	      0.0080806	      0.0000000
     -0.0833455	      0.0083383	      0.0000000
     -0.0897214	      0.0085787	      0.0000000
     -0.0961685	      0.0087986	      0.0000000
     -0.1026735	      0.0089941	      0.0000000
     -0.1092207	      0.0091598	      0.0000000
     -0.1157925	      0.0092898	      0.0000000
     -0.1223688	      0.0093778	      0.0000000
     -0.1289270	      0.0094172	      0.0000000
     -0.1354421	      0.0094013	      0.0000000
     -0.1418867	      0.0093236	      0.0000000
     -0.1482309	      0.0091777	      0.0000000
     -0.1544425	      0.0089576	      0.0000000
     -0.1604874	      0.0086573	      0.0000000
     -0.1663292	      0.0082714	      0.0000000
     -0.1719300	      0.0077950	      0.0000000
     -0.1772503	      0.0072234	      0.0000000
     -0.1822490	      0.0065525	      0.0000000
     -0.1868840	      0.0057790	      0.0000000
     -0.1911124	      0.0049000	      0.0000000
     -0.1948906	      0.0039138	      0.0000000
     -0.1981749	      0.0028195	      0.0000000
     -0.2009217	      0.0016173	      0.0000000
     -0.2030884	      0.0003088	      0.0000000
     -0.2046332	     -0.0011031	      0.0000000
     -0.2055169	     -0.0026139	      0.0000000
     -0.2057024	     -0.0042178	      0.0000000
     -0.2051559	     -0.0059065	      0.0000000
     -0.2038476	     -0.0076704	      0.0000000
     -0.2017518	     -0.0094978	      0.0000000
     -0.1988481	     -0.0113756	      0.0000000
     -0.1951216	     -0.0132887	      0.0000000
     -0.1905639	     -0.0152203	      0.0000000
     -0.1851735	     -0.0171520	      0.0000000
     -0.1789564	     -0.0190638	      0.0000000
     -0.1719268	     -0.0209343	      0.0000000
     -0.1641075	     -0.0227410	      0.0000000
     -0.1555303	     -0.0244606	      0.0000000
     -0.1462362	     -0.0260692	      0.0000000
     -0.1362756	     -0.0275428	      0.0000000
     -0.1257083	     -0.0288580	      0.0000000
     -0.1146035	     -0.0299920	      0.0000000
     -0.1030388	     -0.0309239	      0.0000000
     -0.0911003	     -0.0316345	      0.0000000
     -0.0788813	     -0.0321075	      0.0000000
     -0.0664814	     -0.0323296	      0.0000000
     -0.0540056	     -0.0322911	      0.0000000
     -0.0415624	     -0.0319865	      0.0000000
     -0.0292626	     -0.0314147	      0.0000000
     -0.0172173	     -0.0305791	      0.0000000
     -0.0055366	     -0.0294882	      0.0000000
      0.0056725	     -0.0281550	      0.0000000
      0.0163084	     -0.0265973	      0.0000000
      0.0262766	     -0.0248361	      0.0000000
      0.0354913	     -0.0228961	      0.0000000
      0.0438766	     -0.0208047	      0.0000000
      0.0513677	     -0.0185913	      0.0000000
      0.0579115	     -0.0162868	      0.0000000
      0.0634683	     -0.0139225	      0.0000000
      0.0680102	     -0.0115297	      0.0000000
      0.0715234	     -0.0091385	      0.0000000
      0.0740054	     -0.0067779	      0.0000000
      0.0754681	     -0.0044749	      0.0000000
      0.0759317	     -0.0022541	      0.0000000
      0.0754324	     -0.0001386	      0.0000000
      0.0740101	      0.0018528	      0.0000000
      0.0717235	      0.0037020	      0.0000000
      0.0686285	      0.0053927	      0.0000000
      0.0648038	      0.0069052	      0.0000000
      0.0603184	      0.0082218	      0.0000000
      0.0552750	      0.0093163	      0.0000000
      0.0497547	      0.0101660	      0.0000000
      0.0438925	      0.0107319	      0.0000000
      0.0377799	      0.0109856	      0.0000000
      0.0315958	      0.0108697	      0.0000000
      0.0254357	      0.0103621	      0.0000000
      0.0195375	      0.0093910	      0.0000000
      0.0139805	      0.0079899	      0.0000000
      0.0090862	      0.0061091	      0.0000000
      0.0048813	      0.0039829	      0.0000000
      0.0018606	      0.0016896	      0.0000000
      0.0000000	      0.0000000	      0.0000000
      0.0000000	      0.0000000	      0.0000000
     -0.0017587	     -0.0030137	      0.0000000
     -0.0030112	     -0.0039667	      0.0000000
     -0.0044755	     -0.0036933	      0.0000000
     -0.0065598	     -0.0025047	      0.0000000
     -0.0091133	     -0.0009028	      0.0000000
     -0.0123406	      0.0009351	      0.0000000
     -0.0161165	      0.0027613	      0.0000000
     -0.0205060	      0.0045086	      0.0000000
     -0.0253973	      0.0060811	      0.0000000
     -0.0307848	      0.0074761	      0.0000000
     -0.0365761	      0.0086752	      0.0000000
     -0.0427406	      0.0097038	      0.0000000
     -0.0492087	      0.0105756	      0.0000000
     -0.0559484	      0.0113216	      0.0000000
     -0.0629118	      0.0119626	      0.0000000
     -0.0700733	      0.0125240	      0.0000000
     -0.0774013	      0.0130225	      0.0000000
     -0.0848772	      0.0134738	      0.0000000
     -0.0924793	      0.0138867	      0.0000000
     -0.1001925	      0.0142675	      0.0000000
     -0.1079994	      0.0146176	      0.0000000
     -0.1158848	      0.0149361	      0.0000000
     -0.1238311	      0.0152186	      0.0000000
     -0.1318203	      0.0154597	      0.0000000
     -0.1398317	      0.0156518	      0.0000000
     -0.1478429	      0.0157867	      0.0000000
     -0.1558284	      0.0158554	      0.0000000
     -0.1637609	      0.0158488	      0.0000000
     -0.1716101	      0.0157576	      0.0000000
     -0.1793434	      0.0155729	      0.0000000
     -0.1869257	      0.0152859	      0.0000000
     -0.1943199	      0.0148881	      0.0000000
     -0.2014867	      0.0143719	      0.0000000
     -0.2083850	      0.0137296	      0.0000000
     -0.2149721	      0.0129548	      0.0000000
     -0.2212035	      0.0120412	      0.0000000
     -0.2270339	      0.0109837	      0.0000000
     -0.2324167	      0.0097777	      0.0000000
     -0.2373046	      0.0084199	      0.0000000
     -0.2416499	      0.0069082	      0.0000000
     -0.2454049	      0.0052418	      0.0000000
     -0.2485220	      0.0034214	      0.0000000
     -0.2509550	      0.0014499	      0.0000000
     -0.2526586	     -0.0006681	      0.0000000
     -0.2535901	     -0.0029256	      0.0000000
     -0.2537100	     -0.0053133	      0.0000000
     -0.2529820	     -0.0078195	      0.0000000
     -0.2513741	     -0.0104299	      0.0000000
     -0.2488591	     -0.0131280	      0.0000000
     -0.2454151	     -0.0158947	      0.0000000
     -0.2410262	     -0.0187087	      0.0000000
     -0.2356834	     -0.0215462	      0.0000000
     -0.2293852	     -0.0243809	      0.0000000
     -0.2221379	     -0.0271846	      0.0000000
     -0.2139570	     -0.0299270	      0.0000000
     -0.2048670	     -0.0325763	      0.0000000
     -0.1949021	     -0.0350994	      0.0000000
     -0.1841071	     -0.0374624	      0.0000000
     -0.1725366	     -0.0396313	      0.0000000
     -0.1602561	     -0.0415727	      0.0000000
     -0.1473410	     -0.0432544	      0.0000000
     -0.1338768	     -0.0446461	      0.0000000
     -0.1199585	     -0.0457202	      0.0000000
     -0.1056895	     -0.0464529	      0.0000000
     -0.0911809	     -0.0468245	      0.0000000
     -0.0765500	     -0.0468205	      0.0000000
     -0.0619190	     -0.0464318	      0.0000000
     -0.0474133	     -0.0456557	      0.0000000
     -0.0331598	     -0.0444956	      0.0000000
     -0.0192847	     -0.0429619	      0.0000000
     -0.0059117	     -0.0410718	      0.0000000
      0.0068400	     -0.0388491	      0.0000000
      0.0188582	     -0.0363234	      0.0000000
      0.0300404	     -0.0335293	      0.0000000
      0.0402945	     -0.0305052	      0.0000000
      0.0495411	     -0.0272930	      0.0000000
      0.0577133	     -0.0239366	      0.0000000
      0.0647595	     -0.0204814	      0.0000000
      0.0706414	     -0.0169723	      0.0000000
      0.0753372	     -0.0134538	      0.0000000
      0.0788379	     -0.0099683	      0.0000000
      0.0811517	     -0.0065562	      0.0000000
      0.0822970	     -0.0032546	      0.0000000
      0.0823104	     -0.0000985	      0.0000000
      0.0812345	      0.0028813	      0.0000000
      0.0791339	      0.0056565	      0.0000000
      0.0760713	      0.0082015	      0.0000000
      0.0721348	      0.0104868	      0.0000000
      0.0674034	      0.0124848	      0.0000000
      0.0619929	      0.0141584	      0.0000000
      0.0559959	      0.0154734	      0.0000000
      0.0495644	      0.0163779	      0.0000000
      0.0428017	      0.0168300	      0.0000000
      0.0359090	      0.0167580	      0.0000000
      0.0289913	      0.0161245	      0.0000000
      0.0223214	      0.0148445	      0.0000000
      0.0159854	      0.0129314	      0.0000000
      0.0103734	      0.0103215	      0.0000000
      0.0055210	      0.0071939	      0.0000000
      0.0020674	      0.0035790	      0.0000000
      0.0000000	      0.0000000	      0.0000000
      0.0000000	      0.0000000	      0.0000000
     -0.0019296	     -0.0027850	      0.0000000
     -0.0036014	     -0.0033118	      0.0000000
     -0.0057518	     -0.0025014	      0.0000000
     -0.0086866	     -0.0007006	      0.0000000
     -0.0122520	      0.0015450	      0.0000000
     -0.0165848	      0.0040319	      0.0000000
     -0.0215569	      0.0064801	      0.0000000