# vtk DataFile Version 2.0
vw
ASCII
DATASET STRUCTURED_POINTS
DIMENSIONS  102  102    1
ORIGIN      0.0000000      0.0000000      0.0000000
SPACING      0.0100000      0.0100000      0.0100000
POINT_DATA  10404
VECTORS velocity float
      0.0000000	      0.0000000	      0.0000000
      0.0000000	      0.0000000	      0.0000000
      0.0000000	      0.0000000	      0.0000000
      0.0000000	      0.0000000	      0.0000000
      0.0000000	      0.0000000	      0.0000000
      0.0000000	      0.0000000	      0.0000000
      0.0000000	      0.0000000	      0.0000000
      0.0000000	      0.0000000	      0.0000000
      0.0000000	      0.0000000	      0.0000000
      0.0000000	      0.0000000	      0.0000000
      0.0000000	      0.0000000	      0.0000000
      0.0000000	      0.0000000	      0.0000000
      0.0000000	      0.0000000	      0.0000000
      0.0000000	      0.0000000	      0.0000000
      0.0000000	      0.0000000	      0.0000000
      0.0000000	      0.0000000	      0.0000000
      0.0000000	      0.0000000	      0.0000000
      0.0000000	      0.0000000	      0.0000000
      0.0000000	      0.0000000	      0.0000000
      0.0000000	      0.0000000	      0.0000000
      0.0000000	      0.0000000	      0.0000000
      0.0000000	      0.0000000	      0.0000000
      0.0000000	      0.0000000	      0.0000000
      0.0000000	      0.0000000	      0.0000000
      0.0000000	      0.0000000	      0.0000000
      0.0000000	      0.0000000	      0.0000000
      0.0000000	      0.0000000	      0.0000000
      0.0000000	      0.0000000	      0.0000000
      0.0000000	      0.0000000	      0.0000000
      0.0000000	      0.0000000	      0.0000000
      0.0000000	      0.0000000	      0.0000000
      0.0000000	      0.0000000	      0.0000000
      0.0000000	      0.0000000	      0.0000000
      0.0000000	      0.0000000	      0.0000000
      0.0000000	      0.0000000	      0.0000000
      0.0000000	      0.0000000	      0.0000000
      0.0000000	      0.0000000	      0.0000000
      0.0000000	      0.0000000	      0.0000000
      0.0000000	      0.0000000	      0.0000000
      0.0000000	      0.0000000	      0.0000000
      0.0000000	      0.0000000	      0.0000000
      0.0000000	      0.0000000	      0.0000000
      0.0000000	      0.0000000	      0.0000000
      0.0000000	      0.0000000	      0.0000000
      0.0000000	      0.0000000	      0.0000000
      0.0000000	      0.0000000	      0.0000000
      0.0000000	      0.0000000	      0.0000000
      0.0000000	      0.0000000	      0.0000000
      0.0000000	      0.0000000	      0.0000000
      0.0000000	      0.0000000	      0.0000000
      0.0000000	      0.0000000	      0.0000000
      0.0000000	      0.0000000	      0.0000000
      0.0000000	      0.0000000	      0.0000000
      0.0000000	      0.0000000	      0.0000000
      0.0000000	      0.0000000	      0.0000000
      0.0000000	      0.0000000	      0.0000000
      0.0000000	      0.0000000	      0.0000000
      0.0000000	      0.0000000	      0.0000000
      0.0000000	      0.0000000	      0.0000000
      0.0000000	      0.0000000	      0.0000000
      0.0000000	      0.0000000	      0.0000000
      0.0000000	      0.0000000	      0.0000000
      0.0000000	      0.0000000	      0.0000000
      0.0000000	      0.0000000	      0.0000000
      0.0000000	      0.0000000	      0.0000000
      0.0000000	      0.0000000	      0.0000000
      0.0000000	      0.0000000	      0.0000000
      0.0000000	      0.0000000	      0.0000000
      0.0000000	      0.0000000	      0.0000000
      0.0000000	      0.0000000	      0.0000000
      0.0000000	      0.0000000	      0.0000000
      0.0000000	      0.0000000	      0.0000000
      0.0000000	      0.0000000	      0.0000000
      0.0000000	      0.0000000	      0.0000000
      0.0000000	      0.0000000	      0.0000000
      0.0000000	      0.0000000	      0.0000000
      0.0000000	      0.0000000	      0.0000000
      0.0000000	      0.0000000	      0.0000000
      0.0000000	      0.0000000	      0.0000000
      0.0000000	      0.0000000	      0.0000000
      0.0000000	      0.0000000	      0.0000000
      0.0000000	      0.0000000	      0.0000000
      0.0000000	      0.0000000	      0.0000000
      0.0000000	      0.0000000	      0.0000000
      0.0000000	      0.0000000	      0.0000000
      0.0000000	      0.0000000	      0.0000000
      0.0000000	      0.0000000	      0.0000000
      0.0000000	      0.0000000	      0.0000000
      0.0000000	      0.0000000	      0.0000000
      0.0000000	      0.0000000	      0.0000000
      0.0000000	      0.0000000	      0.0000000
      0.0000000	      0.0000000	      0.0000000
      0.0000000	      0.0000000	      0.0000000
      0.0000000	      0.0000000	      0.0000000
      0.0000000	      0.0000000	      0.0000000
      0.0000000	      0.0000000	      0.0000000
      0.0000000	      0.0000000	      0.0000000
      0.0000000	      0.0000000	      0.0000000
      0.0000000	      0.0000000	      0.0000000
      0.0000000	      0.0000000	      0.0000000
      0.0000000	      0.0000000	      0.0000000
      0.0000000	      0.0000000	      0.0000000
      0.0000000	      0.0000000	      0.0000000
     -0.0020491	     -0.0025852	      0.0000000
     -0.0021110	     -0.0034211	      0.0000000
     -0.0009962	     -0.0037903	      0.0000000
     -0.0000463	     -0.0038322	      0.0000000
      0.0011936	     -0.0037779	      0.0000000
      0.0021412	     -0.0036544	      0.0000000
      0.0030510	     -0.0035101	      0.0000000
      0.0036574	     -0.0033553	      0.0000000
      0.0041086	     -0.0032009	      0.0000000
      0.0042823	     -0.0030513	      0.0000000
      0.0042673	     -0.0029078	      0.0000000
      0.0040075	     -0.0027714	      0.0000000
      0.0035548	     -0.0026406	      0.0000000
      0.0028825	     -0.0025145	      0.0000000
      0.0020187	     -0.0023911	      0.0000000
      0.0009482	     -0.0022690	      0.0000000
     -0.0003158	     -0.0021465	      0.0000000
     -0.0017843	     -0.0020225	      0.0000000
     -0.0034531	     -0.0018963	      0.0000000
     -0.0053310	     -0.0017675	      0.0000000
     -0.0074185	     -0.0016358	      0.0000000
     -0.0097221	     -0.0015014	      0.0000000
     -0.0122435	     -0.0013644	      0.0000000
     -0.0149867	     -0.0012257	      0.0000000
     -0.0179519	     -0.0010859	      0.0000000
     -0.0211394	     -0.0009461	      0.0000000
     -0.0245464	     -0.0008074	      0.0000000
     -0.0281687	     -0.0006714	      0.0000000
     -0.0319988	     -0.0005394	      0.0000000
     -0.0360271	     -0.0004132	      0.0000000
     -0.0402404	     -0.0002947	      0.0000000
     -0.0446223	     -0.0001862	      0.0000000
     -0.0491526	     -0.0000899	      0.0000000
     -0.0538070	     -0.0000083	      0.0000000
     -0.0585570	      0.0000557	      0.0000000
     -0.0633699	      0.0000994	      0.0000000
     -0.0682079	      0.0001195	      0.0000000
     -0.0730291	      0.0001131	      0.0000000
     -0.0777864	      0.0000770	      0.0000000
     -0.0824286	      0.0000083	      0.0000000
     -0.0869002	     -0.0000960	      0.0000000
     -0.0911416	     -0.0002385	      0.0000000
     -0.0950901	     -0.0004217	      0.0000000
     -0.0986801	     -0.0006475	      0.0000000
     -0.1018442	     -0.0009172	      0.0000000
     -0.1045144	     -0.0012315	      0.0000000
     -0.1066231	     -0.0015899	      0.0000000
     -0.1081050	     -0.0019909	      0.0000000
     -0.1088985	     -0.0024314	      0.0000000
     -0.1089484	     -0.0029071	      0.0000000
     -0.1082069	     -0.0034133	      0.0000000
     -0.1066336	     -0.0039450	      0.0000000
     -0.1041972	     -0.0044960	      0.0000000
     -0.1008763	     -0.0050593	      0.0000000
     -0.0966610	     -0.0056268	      0.0000000
     -0.0915546	     -0.0061895	      0.0000000
     -0.0855737	     -0.0067375	      0.0000000
     -0.0787506	     -0.0072605	      0.0000000
     -0.0711324	     -0.0077475	      0.0000000
     -0.0627825	     -0.0081877	      0.0000000
     -0.0537797	     -0.0085703	      0.0000000
     -0.0442180	     -0.0088852	      0.0000000
     -0.0342052	     -0.0091231	      0.0000000
     -0.0238619	     -0.0092762	      0.0000000
     -0.0133191	     -0.0093381	      0.0000000
     -0.0027161	     -0.0093045	      0.0000000
      0.0078030	     -0.0091733	      0.0000000
      0.0180918	     -0.0089453	      0.0000000
      0.0280059	     -0.0086230	      0.0000000
      0.0374065	     -0.0082122	      0.0000000
      0.0461635	     -0.0077207	      0.0000000
      0.0541592	     -0.0071583	      0.0000000
      0.0612912	     -0.0065376	      0.0000000
      0.0674757	     -0.0058721	      0.0000000
      0.0726484	     -0.0051765	      0.0000000
      0.0767678	     -0.0044665	      0.0000000
      0.0798137	     -0.0037572	      0.0000000
      0.0817896	     -0.0030637	      0.0000000
      0.0827192	     -0.0024001	      0.0000000
      0.0826485	     -0.0017789	      0.0000000
      0.0816389	     -0.0012109	      0.0000000
      0.0797708	     -0.0007024	      0.0000000
      0.0771269	     -0.0002539	      0.0000000
      0.0737990	      0.0001345	      0.0000000
      0.0698731	      0.0004625	      0.0000000
      0.0654481	      0.0007309	      0.0000000
      0.0606043	      0.0009434	      0.0000000
      0.0554413	      0.0011022	      0.0000000
      0.0500257	      0.0012123	      0.0000000
      0.0444594	      0.0012737	      0.0000000
      0.0387934	      0.0012900	      0.0000000
      0.0331439	      0.0012537	      0.0000000
      0.0275526	      0.0011647	      0.0000000
      0.0221733	      0.0009992	      0.0000000
      0.0170552	      0.0007550	      0.0000000
      0.0124137	      0.0003829	      0.0000000
      0.0083268	     -0.0000911	      0.0000000
      0.0050348	     -0.0007222	      0.0000000
      0.0026283	     -0.0012667	      0.0000000
      0.0010064	     -0.0015476	      0.0000000
      0.0000000	      0.0000000	      0.0000000
      0.0000000	      0.0000000	      0.0000000
     -0.0022896	     -0.0039858	      0.0000000
     -0.0023564	     -0.0057386	      0.0000000
     -0.0011849	     -0.0066286	      0.0000000
      0.0000076	     -0.0068517	      0.0000000
      0.0015575	     -0.0067814	      0.0000000
      0.0027875	     -0.0064967	      0.0000000
      0.0039124	     -0.0061173	      0.0000000
      0.0045993	     -0.0056781	      0.0000000
      0.0049903	     -0.0052217	      0.0000000
      0.0049312	     -0.0047616	      0.0000000
      0.0045155	     -0.0043111	      0.0000000
      0.0036742	     -0.0038723	      0.0000000
      0.0024657	     -0.0034464	      0.0000000
      0.0008577	     -0.0030300	      0.0000000
     -0.0011177	     -0.0026199	      0.0000000
     -0.0034793	     -0.0022121	      0.0000000
     -0.0062132	     -0.0018028	      0.0000000
     -0.0093339	     -0.0013889	      0.0000000
     -0.0128388	     -0.0009682	      0.0000000
     -0.0167405	     -0.0005395	      0.0000000
     -0.0210414	     -0.0001025	      0.0000000
     -0.0257514	      0.0003423	      0.0000000
     -0.0308730	      0.0007933	      0.0000000
     -0.0364109	      0.0012481	      0.0000000
     -0.0423640	      0.0017037	      0.0000000
     -0.0487298	      0.0021565	      0.0000000
     -0.0555005	      0.0026023	      0.0000000
     -0.0626647	      0.0030362	      0.0000000
     -0.0702050	      0.0034528	      0.0000000
     -0.0780992	      0.0038461	      0.0000000
     -0.0863183	      0.0042093	      0.0000000
     -0.0948273	      0.0045353	      0.0000000
     -0.1035834	      0.0048161	      0.0000000
     -0.1125371	      0.0050435	      0.0000000
     -0.1216306	      0.0052086	      0.0000000
     -0.1307984	      0.0053023	      0.0000000
     -0.1399670	      0.0053150	      0.0000000
     -0.1490549	      0.0052376	      0.0000000
     -0.1579731	      0.0050607	      0.0000000
     -0.1666251	      0.0047755	      0.0000000
     -0.1749080	      0.0043737	      0.0000000
     -0.1827134	      0.0038482	      0.0000000
     -0.1899280	      0.0031926	      0.0000000
     -0.1964356	      0.0024027	      0.0000000
     -0.2021185	      0.0014758	      0.0000000
     -0.2068590	      0.0004118	      0.0000000
     -0.2105423	     -0.0007865	      0.0000000
     -0.2130585	     -0.0021130	      0.0000000
     -0.2143054	     -0.0035572	      0.0000000
     -0.2141934	     -0.0051051	      0.0000000
     -0.2126462	     -0.0067418	      0.0000000
     -0.2096012	     -0.0084504	      0.0000000
     -0.2050119	     -0.0102115	      0.0000000
     -0.1988494	     -0.0120033	      0.0000000
     -0.1911044	     -0.0138009	      0.0000000
     -0.1817892	     -0.0155772	      0.0000000
     -0.1709391	     -0.0173028	      0.0000000
     -0.1586139	     -0.0189469	      0.0000000
     -0.1448980	     -0.0204777	      0.0000000
     -0.1299015	     -0.0218634	      0.0000000
     -0.1137590	     -0.0230730	      0.0000000
     -0.0966292	     -0.0240770	      0.0000000
     -0.0786929	     -0.0248487	      0.0000000
     -0.0601514	     -0.0253648	      0.0000000
     -0.0412226	     -0.0256064	      0.0000000
     -0.0221386	     -0.0255605	      0.0000000
     -0.0031402	     -0.0252198	      0.0000000
      0.0155261	     -0.0245844	      0.0000000
      0.0336153	     -0.0236624	      0.0000000
      0.0508895	     -0.0224679	      0.0000000
      0.0671239	     -0.0210228	      0.0000000
      0.0821116	     -0.0193554	      0.0000000
      0.0956679	     -0.0174997	      0.0000000
      0.1076376	     -0.0154948	      0.0000000
      0.1178953	     -0.0133833	      0.0000000
      0.1263512	     -0.0112101	      0.0000000
      0.1329508	     -0.0090205	      0.0000000
      0.1376778	     -0.0068595	      0.0000000
      0.1405504	     -0.0047693	      0.0000000
      0.1416239	     -0.0027890	      0.0000000
      0.1409826	     -0.0009522	      0.0000000
      0.1387429	      0.0007180	      0.0000000
      0.1350371	      0.0022121	      0.0000000
      0.1300174	      0.0035238	      0.0000000
      0.1238316	      0.0046496	      0.0000000
      0.1166467	      0.0055904	      0.0000000
      0.1086100	      0.0063520	      0.0000000
      0.0998937	      0.0069395	      0.0000000
      0.0906327	      0.0073620	      0.0000000
      0.0810049	      0.0076205	      0.0000000
      0.0711282	      0.0077201	      0.0000000
      0.0612018	      0.0076447	      0.0000000
      0.0513330	      0.0073898	      0.0000000
      0.0417725	      0.0069059	      0.0000000
      0.0326290	      0.0061847	      0.0000000
      0.0242365	      0.0051323	      0.0000000
      0.0167011	      0.0038019	      0.0000000
      0.0104207	      0.0020957	      0.0000000
      0.0054256	      0.0004422	      0.0000000
      0.0020097	     -0.0009683	      0.0000000
      0.0000000	      0.0000000	      0.0000000
      0.0000000	      0.0000000	      0.0000000
     -0.0023218	     -0.0048858	      0.0000000
     -0.0024497	     -0.0077077	      0.0000000
     -0.0013905	     -0.0092307	      0.0000000
     -0.0002918	     -0.0097287	      0.0000000
      0.0011358	     -0.0096471	      0.0000000
      0.0022019	     -0.0091426	      0.0000000
      0.0030828	     -0.0084209	      0.0000000
      0.0034258	     -0.0075560	      0.0000000
      0.0033528	     -0.0066371	      0.0000000
      0.0026982	     -0.0056929	      0.0000000
      0.0015466	     -0.0047567	      0.0000000
     -0.0001763	     -0.0038331	      0.0000000
     -0.0024163	     -0.0029287	      0.0000000
     -0.0052087	     -0.0020375	      0.0000000
     -0.0085244	     -0.0011556	      0.0000000
     -0.0123849	     -0.0002745	      0.0000000
     -0.0167797	      0.0006113	      0.0000000
     -0.0217261	      0.0015080	      0.0000000
     -0.0272248	      0.0024189	      0.0000000
     -0.0332911	      0.0033462	      0.0000000
     -0.0399300	      0.0042898	      0.0000000
     -0.0471526	      0.0052478	      0.0000000
     -0.0549622	      0.0062161	      0.0000000
     -0.0633626	      0.0071893	      0.0000000
     -0.0723501	      0.0081604	      0.0000000
     -0.0819177	      0.0091210	      0.0000000
     -0.0920510	      0.0100613	      0.0000000
     -0.1027293	      0.0109703	      0.0000000
     -0.1139236	      0.0118356	      0.0000000
     -0.1255970	      0.0126439	      0.0000000
     -0.1377033	      0.0133803	      0.0000000
     -0.1501869	      0.0140291	      0.0000000
     -0.1629821	      0.0145735	      0.0000000
     -0.1760129	      0.0149957	      0.0000000
     -0.1891925	      0.0152772	      0.0000000
     -0.2024238	      0.0153993	      0.0000000
     -0.2155992	      0.0153430	      0.0000000
     -0.2286009	      0.0150896	      0.0000000
     -0.2413019	      0.0146211	      0.0000000
     -0.2535664	      0.0139208	      0.0000000
     -0.2652516	      0.0129736	      0.0000000
     -0.2762086	      0.0117665	      0.0000000
     -0.2862844	      0.0102896	      0.0000000
     -0.2953236	      0.0085361	      0.0000000
     -0.3031712	      0.0065036	      0.0000000
     -0.3096743	      0.0041943	      0.0000000
     -0.3146856	      0.0016163	      0.0000000
     -0.3180658	     -0.0012159	      0.0000000
     -0.3196875	     -0.0042793	      0.0000000
     -0.3194392	     -0.0075434	      0.0000000
     -0.3172293	     -0.0109765	      0.0000000
     -0.3129841	     -0.0145436	      0.0000000
     -0.3066510	     -0.0182050	      0.0000000
     -0.2982001	     -0.0219164	      0.0000000
     -0.2876266	     -0.0256282	      0.0000000
     -0.2749526	     -0.0292870	      0.0000000
     -0.2602288	     -0.0328355	      0.0000000
     -0.2435356	     -0.0362138	      0.0000000
     -0.2249840	     -0.0393610	      0.0000000
     -0.2047153	     -0.0422160	      0.0000000
     -0.1829011	     -0.0447193	      0.0000000
     -0.1597418	     -0.0468146	      0.0000000
     -0.1354651	     -0.0484505	      0.0000000
     -0.1103234	     -0.0495816	      0.0000000
     -0.0845909	     -0.0501711	      0.0000000
     -0.0585592	     -0.0501917	      0.0000000
     -0.0325338	     -0.0496273	      0.0000000
     -0.0068276	     -0.0484747	      0.0000000
      0.0182431	     -0.0467445	      0.0000000
      0.0423676	     -0.0444634	      0.0000000
      0.0652471	     -0.0416703	      0.0000000
      0.0866038	     -0.0384150	      0.0000000
      0.1061839	     -0.0347620	      0.0000000
      0.1237663	     -0.0307840	      0.0000000
      0.1391657	     -0.0265616	      0.0000000
      0.1522392	     -0.0221812	      0.0000000
      0.1628869	     -0.0177310	      0.0000000
      0.1710560	     -0.0132997	      0.0000000
      0.1767393	     -0.0089720	      0.0000000
      0.1799759	     -0.0048275	      0.0000000
      0.1808469	     -0.0009364	      0.0000000
      0.1794736	      0.0026444	      0.0000000
      0.1760167	      0.0058816	      0.0000000
      0.1706622	      0.0087568	      0.0000000
      0.1635993	      0.0112583	      0.0000000
      0.1550422	      0.0133829	      0.0000000
      0.1451896	      0.0151352	      0.0000000
      0.1342702	      0.0165215	      0.0000000
      0.1224761	      0.0175528	      0.0000000
      0.1100482	      0.0182303	      0.0000000
      0.0971643	      0.0185576	      0.0000000
      0.0840921	      0.0185101	      0.0000000
      0.0709971	      0.0180726	      0.0000000
      0.0582069	      0.0171729	      0.0000000
      0.0458785	      0.0157864	      0.0000000
      0.0344394	      0.0137891	      0.0000000
      0.0240182	      0.0112403	      0.0000000
      0.0151640	      0.0080382	      0.0000000
      0.0078898	      0.0046778	      0.0000000
      0.0028951	      0.0013692	      0.0000000
      0.0000000	      0.0000000	      0.0000000
      0.0000000	      0.0000000	      0.0000000
     -0.0022499	     -0.0061030	      0.0000000
     -0.0024700	     -0.0097843	      0.0000000
     -0.0016919	     -0.0118063	      0.0000000
     -0.0009617	     -0.0124810	      0.0000000
     -0.0000117	     -0.0123174	      0.0000000
      0.0005122	     -0.0115285	      0.0000000
      0.0007603	     -0.0103906	      0.0000000
      0.0003877	     -0.0090174	      0.0000000
     -0.0005023	     -0.0075413	      0.0000000
     -0.0020779	     -0.0060101	      0.0000000
     -0.0042661	     -0.0044765	      0.0000000
     -0.0071452	     -0.0029501	      0.0000000
     -0.0106691	     -0.0014434	      0.0000000
     -0.0148775	      0.0000515	      0.0000000
     -0.0197473	      0.0015391	      0.0000000
     -0.0253039	      0.0030312	      0.0000000
     -0.0315415	      0.0045349	      0.0000000
     -0.0384816	      0.0060592	      0.0000000
     -0.0461290	      0.0076080	      0.0000000
     -0.0545020	      0.0091841	      0.0000000
     -0.0636084	      0.0107857	      0.0000000
     -0.0734600	      0.0124090	      0.0000000
     -0.0840602	      0.0140459	      0.0000000
     -0.0954105	      0.0156865	      0.0000000
     -0.1075037	      0.0173176	      0.0000000
     -0.1203266	      0.0189242	      0.0000000
     -0.1338565	      0.0204886	      0.0000000
     -0.1480618	      0.0219913	      0.0000000
     -0.1629003	      0.0234106	      0.0000000
     -0.1783190	      0.0247232	      0.0000000
     -0.1942528	      0.0259035	      0.0000000
     -0.2106249	      0.0269249	      0.0000000
     -0.2273456	      0.0277589	      0.0000000
     -0.2443125	      0.0283761	      0.0000000
     -0.2614106	      0.0287465	      0.0000000
     -0.2785124	      0.0288399	      0.0000000
     -0.2954783	      0.0286261	      0.0000000
     -0.3121580	      0.0280764	      0.0000000
     -0.3283908	      0.0271634	      0.0000000
     -0.3440075	      0.0258625	      0.0000000
     -0.3588323	      0.0241520	      0.0000000
     -0.3726840	      0.0220146	      0.0000000
     -0.3853790	      0.0194377	      0.0000000
     -0.3967334	      0.0164147	      0.0000000
     -0.4065658	      0.0129455	      0.0000000
     -0.4146999	      0.0090379	      0.0000000
     -0.4209681	      0.0047081	      0.0000000
     -0.4252132	     -0.0000174	      0.0000000
     -0.4272949	     -0.0051006	      0.0000000
     -0.4270875	     -0.0104911	      0.0000000
     -0.4244925	     -0.0161363	      0.0000000
     -0.4194312	     -0.0219800	      0.0000000
     -0.4118490	     -0.0279587	      0.0000000
     -0.4017174	     -0.0340024	      0.0000000
     -0.3890355	     -0.0400341	      0.0000000
     -0.3738327	     -0.0459707	      0.0000000
     -0.3561695	     -0.0517241	      0.0000000
     -0.3361388	     -0.0572030	      0.0000000
     -0.3138669	     -0.0623144	      0.0000000
     -0.2895130	     -0.0669655	      0.0000000
     -0.2632692	     -0.0710659	      0.0000000
     -0.2353594	     -0.0745298	      0.0000000
     -0.2060373	     -0.0772781	      0.0000000
     -0.1755847	     -0.0792410	      0.0000000
     -0.1443081	     -0.0803604	      0.0000000
     -0.1125352	     -0.0805917	      0.0000000
     -0.0806108	     -0.0799067	      0.0000000
     -0.0488916	     -0.0782946	      0.0000000
     -0.0177404	     -0.0757661	      0.0000000
      0.0124794	     -0.0723527	      0.0000000
      0.0414119	     -0.0681099	      0.0000000
      0.0687182	     -0.0631115	      0.0000000
      0.0940836	     -0.0574482	      0.0000000
      0.1172282	     -0.0512285	      0.0000000
      0.1379064	     -0.0445734	      0.0000000
      0.1559179	     -0.0376141	      0.0000000
      0.1711099	     -0.0304859	      0.0000000
      0.1833819	     -0.0233274	      0.0000000
      0.1926849	     -0.0162726	      0.0000000
      0.1990250	     -0.0094500	      0.0000000
      0.2024582	     -0.0029747	      0.0000000
      0.2030915	      0.0030488	      0.0000000
      0.2010820	      0.0085491	      0.0000000
      0.1966345	      0.0134875	      0.0000000
      0.1899599	      0.0178365	      0.0000000
      0.1813035	      0.0215823	      0.0000000
      0.1709003	      0.0247230	      0.0000000
      0.1590220	      0.0272614	      0.0000000
      0.1459063	      0.0292067	      0.0000000
      0.1318465	      0.0305578	      0.0000000
      0.1170701	      0.0313150	      0.0000000
      0.1019042	      0.0314455	      0.0000000
      0.0865611	      0.0309234	      0.0000000
      0.0714339	      0.0296574	      0.0000000
      0.0567132	      0.0276050	      0.0000000
      0.0429100	      0.0246157	      0.0000000
      0.0301626	      0.0207324	      0.0000000
      0.0191764	      0.0158294	      0.0000000
      0.0099629	      0.0103718	      0.0000000
      0.0036169	      0.0045261	      0.0000000
      0.0000000	      0.0000000	      0.0000000
      0.0000000	      0.0000000	      0.0000000
     -0.0022698	     -0.0070610	      0.0000000
     -0.0026875	     -0.0114351	      0.0000000
     -0.0023110	     -0.0138177	      0.0000000
     -0.0021316	     -0.0145590	      0.0000000
     -0.0018816	     -0.0142128	      0.0000000
     -0.0021611	     -0.0130460	      0.0000000
     -0.0028256	     -0.0113954	      0.0000000
     -0.0042001	     -0.0094131	      0.0000000
     -0.0061905	     -0.0072727	      0.0000000
     -0.0089594	     -0.0050407	      0.0000000
     -0.0124431	     -0.0027897	      0.0000000
     -0.0167217	     -0.0005345	      0.0000000
     -0.0217576	      0.0017068	      0.0000000
     -0.0275942	      0.0039433	      0.0000000
     -0.0342154	      0.0061792	      0.0000000
     -0.0416520	      0.0084297	      0.0000000
     -0.0499050	      0.0107040	      0.0000000
     -0.0590010	      0.0130133	      0.0000000
     -0.0689501	      0.0153618	      0.0000000
     -0.0797743	      0.0177516	      0.0000000
     -0.0914839	      0.0201782	      0.0000000
     -0.1040918	      0.0226340	      0.0000000
     -0.1176006	      0.0251055	      0.0000000
     -0.1320093	      0.0275759	      0.0000000
     -0.1473056	      0.0300241	      0.0000000
     -0.1634697	      0.0324257	      0.0000000
     -0.1804690	      0.0347528	      0.0000000
     -0.1982602	      0.0369748	      0.0000000
     -0.2167864	      0.0390579	      0.0000000
     -0.2359777	      0.0409659	      0.0000000
     -0.2557496	      0.0426601	      0.0000000
     -0.2760033	      0.0441000	      0.0000000
     -0.2966253	      0.0452435	      0.0000000
     -0.3174877	      0.0460472	      0.0000000
     -0.3384479	      0.0464676	      0.0000000
     -0.3593503	      0.0464615	      0.0000000
     -0.3800264	      0.0459868	      0.0000000
     -0.4002965	      0.0450039	      0.0000000
     -0.4199711	      0.0434761	      0.0000000
     -0.4388529	      0.0413710	      0.0000000
     -0.4567391	      0.0386618	      0.0000000
     -0.4734234	      0.0353280	      0.0000000
     -0.4886992	      0.0313565	      0.0000000
     -0.5023619	      0.0267430	      0.0000000
     -0.5142119	      0.0214924	      0.0000000
     -0.5240577	      0.0156211	      0.0000000
     -0.5317189	      0.0091562	      0.0000000
     -0.5370282	      0.0021395	      0.0000000
     -0.5398374	     -0.0053746	      0.0000000
     -0.5400129	     -0.0133134	      0.0000000
     -0.5374507	     -0.0215983	      0.0000000
     -0.5320685	     -0.0301504	      0.0000000
     -0.5238090	     -0.0388793	      0.0000000
     -0.5126425	     -0.0476872	      0.0000000
     -0.4985682	     -0.0564665	      0.0000000
     -0.4816168	     -0.0651024	      0.0000000
     -0.4618514	     -0.0734735	      0.0000000
     -0.4393688	     -0.0814544	      0.0000000
     -0.4143001	     -0.0889176	      0.0000000
     -0.3868108	     -0.0957362	      0.0000000
     -0.3571011	     -0.1017860	      0.0000000
     -0.3254042	     -0.1069490	      0.0000000
     -0.2919859	     -0.1111157	      0.0000000
     -0.2571423	     -0.1141883	      0.0000000
     -0.2211972	     -0.1160837	      0.0000000
     -0.1844992	     -0.1167366	      0.0000000
     -0.1474174	     -0.1161021	      0.0000000
     -0.1103375	     -0.1141588	      0.0000000
     -0.0736554	     -0.1109111	      0.0000000
     -0.0377737	     -0.1063928	      0.0000000
     -0.0030907	     -0.1006674	      0.0000000
      0.0299977	     -0.0938252	      0.0000000
      0.0611240	     -0.0859912	      0.0000000
      0.0899434	     -0.0773072	      0.0000000
      0.1161517	     -0.0679329	      0.0000000
      0.1394888	     -0.0580482	      0.0000000
      0.1597416	     -0.0478410	      0.0000000
      0.1767531	     -0.0375044	      0.0000000
      0.1904228	     -0.0272289	      0.0000000
      0.2007117	     -0.0172001	      0.0000000
      0.2076360	     -0.0075882	      0.0000000
      0.2112767	      0.0014472	      0.0000000
      0.2117598	      0.0097775	      0.0000000
      0.2092963	      0.0173275	      0.0000000
      0.2041054	      0.0240486	      0.0000000
      0.1964506	      0.0299088	      0.0000000
      0.1865911	      0.0348931	      0.0000000
      0.1748308	      0.0389957	      0.0000000
      0.1614425	      0.0422191	      0.0000000
      0.1467623	      0.0445572	      0.0000000
      0.1310591	      0.0460036	      0.0000000
      0.1147104	      0.0465175	      0.0000000
      0.0979687	      0.0460596	      0.0000000
      0.0812858	      0.0445234	      0.0000000
      0.0648833	      0.0418415	      0.0000000
      0.0493515	      0.0378423	      0.0000000
      0.0348475	      0.0325237	      0.0000000
      0.0222252	      0.0257319	      0.0000000
      0.0115142	      0.0178104	      0.0000000
      0.0041408	      0.0088317	      0.0000000
      0.0000000	      0.0000000	      0.0000000
      0.0000000	      0.0000000	      0.0000000
     -0.0023470	     -0.0080164	      0.0000000
     -0.0030516	     -0.0128680	      0.0000000
     -0.0032075	     -0.0154035	      0.0000000
     -0.0037481	     -0.0160226	      0.0000000
     -0.0044041	     -0.0153457	      0.0000000
     -0.0057169	     -0.0136799	      0.0000000
     -0.0075400	     -0.0114155	      0.0000000