# vtk DataFile Version 2.0
vw
ASCII
DATASET STRUCTURED_POINTS
DIMENSIONS  102  102    1
ORIGIN      0.0000000      0.0000000      0.0000000
SPACING      0.0100000      0.0100000      0.0100000
POINT_DATA  10404
VECTORS velocity float
      0.0000000	      0.0000000	      0.0000000
      0.0000000	      0.0000000	      0.0000000
      0.0000000	      0.0000000	      0.0000000
      0.0000000	      0.0000000	      0.0000000
      0.0000000	      0.0000000	      0.0000000
      0.0000000	      0.0000000	      0.0000000
      0.0000000	      0.0000000	      0.0000000
      0.0000000	      0.0000000	      0.0000000
      0.0000000	      0.0000000	      0.0000000
      0.0000000	      0.0000000	      0.0000000
      0.0000000	      0.0000000	      0.0000000
      0.0000000	      0.0000000	      0.0000000
      0.0000000	      0.0000000	      0.0000000
      0.0000000	      0.0000000	      0.0000000
      0.0000000	      0.0000000	      0.0000000
      0.0000000	      0.0000000	      0.0000000
      0.0000000	      0.0000000	      0.0000000
      0.0000000	      0.0000000	      0.0000000
      0.0000000	      0.0000000	      0.0000000
      0.0000000	      0.0000000	      0.0000000
      0.0000000	      0.0000000	      0.0000000
      0.0000000	      0.0000000	      0.0000000
      0.0000000	      0.0000000	      0.0000000
      0.0000000	      0.0000000	      0.0000000
      0.0000000	      0.0000000	      0.0000000
      0.0000000	      0.0000000	      0.0000000
      0.0000000	      0.0000000	      0.0000000
      0.0000000	      0.0000000	      0.0000000
      0.0000000	      0.0000000	      0.0000000
      0.0000000	      0.0000000	      0.0000000
      0.0000000	      0.0000000	      0.0000000
      0.0000000	      0.0000000	      0.0000000
      0.0000000	      0.0000000	      0.0000000
      0.0000000	      0.0000000	      0.0000000
      0.0000000	      0.0000000	      0.0000000
      0.0000000	      0.0000000	      0.0000000
      0.0000000	      0.0000000	      0.0000000
      0.0000000	      0.0000000	      0.0000000
      0.0000000	      0.0000000	      0.0000000
      0.0000000	      0.0000000	      0.0000000
      0.0000000	      0.0000000	      0.0000000
      0.0000000	      0.0000000	      0.0000000
      0.0000000	      0.0000000	      0.0000000
      0.0000000	      0.0000000	      0.0000000
      0.0000000	      0.0000000	      0.0000000
      0.0000000	      0.0000000	      0.0000000
      0.0000000	      0.0000000	      0.0000000
      0.0000000	      0.0000000	      0.0000000
      0.0000000	      0.0000000	      0.0000000
      0.0000000	      0.0000000	      0.0000000
      0.0000000	      0.0000000	      0.0000000
      0.0000000	      0.0000000	      0.0000000
      0.0000000	      0.0000000	      0.0000000
      0.0000000	      0.0000000	      0.0000000
      0.0000000	      0.0000000	      0.0000000
      0.0000000	      0.0000000	      0.0000000
      0.0000000	      0.0000000	      0.0000000
      0.0000000	      0.0000000	      0.0000000
      0.0000000	      0.0000000	      0.0000000
      0.0000000	      0.0000000	      0.0000000
      0.0000000	      0.0000000	      0.0000000
      0.0000000	      0.0000000	      0.0000000
      0.0000000	      0.0000000	      0.0000000
      0.0000000	      0.0000000	      0.0000000
      0.0000000	      0.0000000	      0.0000000
      0.0000000	      0.0000000	      0.0000000
      0.0000000	      0.0000000	      0.0000000
      0.0000000	      0.0000000	      0.0000000
      0.0000000	      0.0000000	      0.0000000
      0.0000000	      0.0000000	      0.0000000
      0.0000000	      0.0000000	      0.0000000
      0.0000000	      0.0000000	      0.0000000
      0.0000000	      0.0000000	      0.0000000
      0.0000000	      0.0000000	      0.0000000
      0.0000000	      0.0000000	      0.0000000
      0.0000000	      0.0000000	      0.0000000
      0.0000000	      0.0000000	      0.0000000
      0.0000000	      0.0000000	      0.0000000
      0.0000000	      0.0000000	      0.0000000
      0.0000000	      0.0000000	      0.0000000
      0.0000000	      0.0000000	      0.0000000
      0.0000000	      0.0000000	      0.0000000
      0.0000000	      0.0000000	      0.0000000
      0.0000000	      0.0000000	      0.0000000
      0.0000000	      0.0000000	      0.0000000
      0.0000000	      0.0000000	      0.0000000
      0.0000000	      0.0000000	      0.0000000
      0.0000000	      0.0000000	      0.0000000
      0.0000000	      0.0000000	      0.0000000
      0.0000000	      0.0000000	      0.0000000
      0.0000000	      0.0000000	      0.0000000
      0.0000000	      0.0000000	      0.0000000
      0.0000000	      0.0000000	      0.0000000
      0.0000000	      0.0000000	      0.0000000
      0.0000000	      0.0000000	      0.0000000
      0.0000000	      0.0000000	      0.0000000
      0.0000000	      0.0000000	      0.0000000
      0.0000000	      0.0000000	      0.0000000
      0.0000000	      0.0000000	      0.0000000
      0.0000000	      0.0000000	      0.0000000
      0.0000000	      0.0000000	      0.0000000
      0.0000000	      0.0000000	      0.0000000
      0.0000000	      0.0000000	      0.0000000
     -0.0117428	     -0.0155088	      0.0000000
     -0.0136061	     -0.0224427	      0.0000000
     -0.0045051	     -0.0260171	      0.0000000
      0.0049422	     -0.0275120	      0.0000000
      0.0162523	     -0.0276162	      0.0000000
      0.0268289	     -0.0268073	      0.0000000
      0.0362242	     -0.0253939	      0.0000000
      0.0436754	     -0.0236453	      0.0000000
      0.0489595	     -0.0217677	      0.0000000
      0.0519883	     -0.0199194	      0.0000000
      0.0528752	     -0.0182044	      0.0000000
      0.0518217	     -0.0166778	      0.0000000
      0.0490793	     -0.0153525	      0.0000000
      0.0448964	     -0.0142100	      0.0000000
      0.0394875	     -0.0132118	      0.0000000
      0.0330173	     -0.0123123	      0.0000000
      0.0255974	     -0.0114668	      0.0000000
      0.0172889	     -0.0106371	      0.0000000
      0.0081108	     -0.0097953	      0.0000000
     -0.0019421	     -0.0089250	      0.0000000
     -0.0128899	     -0.0080209	      0.0000000
     -0.0247542	     -0.0070842	      0.0000000
     -0.0375597	     -0.0061168	      0.0000000
     -0.0513217	     -0.0051246	      0.0000000
     -0.0660417	     -0.0041197	      0.0000000
     -0.0817080	     -0.0031135	      0.0000000
     -0.0982964	     -0.0021175	      0.0000000
     -0.1157684	     -0.0011428	      0.0000000
     -0.1340759	     -0.0002001	      0.0000000
     -0.1531534	      0.0006955	      0.0000000
     -0.1729223	      0.0015296	      0.0000000
     -0.1932949	      0.0022915	      0.0000000
     -0.2141729	      0.0029703	      0.0000000
     -0.2354488	      0.0035556	      0.0000000
     -0.2570065	      0.0040369	      0.0000000
     -0.2787218	      0.0044043	      0.0000000
     -0.3004635	      0.0046486	      0.0000000
     -0.3220941	      0.0047608	      0.0000000
     -0.3434706	      0.0047329	      0.0000000
     -0.3644454	      0.0045577	      0.0000000
     -0.3848672	      0.0042288	      0.0000000
     -0.4045819	      0.0037406	      0.0000000
     -0.4234329	      0.0030885	      0.0000000
     -0.4412626	      0.0022690	      0.0000000
     -0.4579125	      0.0012797	      0.0000000
     -0.4732265	      0.0001201	      0.0000000
     -0.4870467	     -0.0012051	      0.0000000
     -0.4992220	     -0.0026889	      0.0000000
     -0.5096145	     -0.0043316	      0.0000000
     -0.5180768	     -0.0061564	      0.0000000
     -0.5244380	     -0.0081819	      0.0000000
     -0.5285168	     -0.0103961	      0.0000000
     -0.5301570	     -0.0127778	      0.0000000
     -0.5292250	     -0.0153055	      0.0000000
     -0.5256079	     -0.0179570	      0.0000000
     -0.5192141	     -0.0207089	      0.0000000
     -0.5099739	     -0.0235357	      0.0000000
     -0.4978420	     -0.0264090	      0.0000000
     -0.4827997	     -0.0292976	      0.0000000
     -0.4648579	     -0.0321665	      0.0000000
     -0.4440602	     -0.0349778	      0.0000000
     -0.4204866	     -0.0376903	      0.0000000
     -0.3942557	     -0.0402602	      0.0000000
     -0.3655282	     -0.0426414	      0.0000000
     -0.3345091	     -0.0447867	      0.0000000
     -0.3014488	     -0.0466485	      0.0000000
     -0.2666445	     -0.0481801	      0.0000000
     -0.2304394	     -0.0493371	      0.0000000
     -0.1932213	     -0.0500792	      0.0000000
     -0.1554188	     -0.0503719	      0.0000000
     -0.1174971	     -0.0501882	      0.0000000
     -0.0799498	     -0.0495111	      0.0000000
     -0.0432908	     -0.0483358	      0.0000000
     -0.0080395	     -0.0466709	      0.0000000
      0.0252870	     -0.0445469	      0.0000000
      0.0562047	     -0.0420081	      0.0000000
      0.0842720	     -0.0390986	      0.0000000
      0.1090951	     -0.0358868	      0.0000000
      0.1303509	     -0.0324522	      0.0000000
      0.1478030	     -0.0288844	      0.0000000
      0.1613099	     -0.0252774	      0.0000000
      0.1708322	     -0.0217263	      0.0000000
      0.1764351	     -0.0183229	      0.0000000
      0.1782854	     -0.0151510	      0.0000000
      0.1766454	     -0.0122829	      0.0000000
      0.1718591	     -0.0097752	      0.0000000
      0.1643388	     -0.0076661	      0.0000000
      0.1545404	     -0.0059636	      0.0000000
      0.1429164	     -0.0046448	      0.0000000
      0.1298907	     -0.0036783	      0.0000000
      0.1158710	     -0.0030385	      0.0000000
      0.1012485	     -0.0027063	      0.0000000
      0.0863936	     -0.0026662	      0.0000000
      0.0716685	     -0.0029164	      0.0000000
      0.0574312	     -0.0034705	      0.0000000
      0.0440800	     -0.0043597	      0.0000000
      0.0320097	     -0.0055786	      0.0000000
      0.0216563	     -0.0070460	      0.0000000
      0.0132841	     -0.0081660	      0.0000000
      0.0062804	     -0.0078359	      0.0000000
      0.0000000	      0.0000000	      0.0000000
      0.0000000	      0.0000000	      0.0000000
     -0.0127559	     -0.0265706	      0.0000000
     -0.0134581	     -0.0410576	      0.0000000
     -0.0017630	     -0.0493916	      0.0000000
      0.0116194	     -0.0532045	      0.0000000
      0.0276320	     -0.0537094	      0.0000000
      0.0428664	     -0.0518657	      0.0000000
      0.0563625	     -0.0484235	      0.0000000
      0.0669145	     -0.0440449	      0.0000000
      0.0740402	     -0.0392616	      0.0000000
      0.0775024	     -0.0344849	      0.0000000
      0.0773709	     -0.0299932	      0.0000000
      0.0738725	     -0.0259418	      0.0000000
      0.0673295	     -0.0223795	      0.0000000
      0.0580818	     -0.0192730	      0.0000000
      0.0464387	     -0.0165381	      0.0000000
      0.0326512	     -0.0140720	      0.0000000
      0.0169015	     -0.0117701	      0.0000000
     -0.0006921	     -0.0095350	      0.0000000
     -0.0200700	     -0.0072994	      0.0000000
     -0.0411969	     -0.0050244	      0.0000000
     -0.0640665	     -0.0026910	      0.0000000
     -0.0886782	     -0.0002953	      0.0000000
     -0.1150351	      0.0021561	      0.0000000
     -0.1431024	      0.0046330	      0.0000000
     -0.1728388	      0.0071071	      0.0000000
     -0.2041779	      0.0095493	      0.0000000
     -0.2370318	      0.0119294	      0.0000000
     -0.2712894	      0.0142170	      0.0000000
     -0.3068171	      0.0163804	      0.0000000
     -0.3434608	      0.0183864	      0.0000000
     -0.3810486	      0.0202057	      0.0000000
     -0.4193912	      0.0218116	      0.0000000
     -0.4582833	      0.0231785	      0.0000000
     -0.4975059	      0.0242820	      0.0000000
     -0.5368282	      0.0250992	      0.0000000
     -0.5760098	      0.0256087	      0.0000000
     -0.6148020	      0.0257911	      0.0000000
     -0.6529503	      0.0256289	      0.0000000
     -0.6901961	      0.0251067	      0.0000000
     -0.7262781	      0.0242113	      0.0000000
     -0.7609342	      0.0229317	      0.0000000
     -0.7939027	      0.0212593	      0.0000000
     -0.8249243	      0.0191878	      0.0000000
     -0.8537430	      0.0167133	      0.0000000
     -0.8801073	      0.0138344	      0.0000000
     -0.9037724	      0.0105529	      0.0000000
     -0.9244989	      0.0068755	      0.0000000
     -0.9420513	      0.0028134	      0.0000000
     -0.9562014	     -0.0016259	      0.0000000
     -0.9667060	     -0.0064635	      0.0000000
     -0.9733758	     -0.0117334	      0.0000000
     -0.9759933	     -0.0174142	      0.0000000
     -0.9743840	     -0.0234501	      0.0000000
     -0.9684064	     -0.0297896	      0.0000000
     -0.9579492	     -0.0363793	      0.0000000
     -0.9429339	     -0.0431636	      0.0000000
     -0.9233151	     -0.0500825	      0.0000000
     -0.8990836	     -0.0570704	      0.0000000
     -0.8702684	     -0.0640550	      0.0000000
     -0.8369406	     -0.0709572	      0.0000000
     -0.7992159	     -0.0776912	      0.0000000
     -0.7572584	     -0.0841647	      0.0000000
     -0.7112839	     -0.0902796	      0.0000000
     -0.6615624	     -0.0959334	      0.0000000
     -0.6084209	     -0.1010206	      0.0000000
     -0.5522452	     -0.1054348	      0.0000000
     -0.4934806	     -0.1090711	      0.0000000
     -0.4326323	     -0.1118288	      0.0000000
     -0.3702632	     -0.1136152	      0.0000000
     -0.3069914	     -0.1143488	      0.0000000
     -0.2434849	     -0.1139637	      0.0000000
     -0.1804545	     -0.1124137	      0.0000000
     -0.1186443	     -0.1096776	      0.0000000
     -0.0588212	     -0.1057634	      0.0000000
     -0.0017474	     -0.1007179	      0.0000000
      0.0517910	     -0.0946289	      0.0000000
      0.1011070	     -0.0876176	      0.0000000
      0.1455538	     -0.0798148	      0.0000000
      0.1845735	     -0.0714027	      0.0000000
      0.2177141	     -0.0625847	      0.0000000
      0.2446494	     -0.0535806	      0.0000000
      0.2651936	     -0.0446182	      0.0000000
      0.2793128	     -0.0359243	      0.0000000
      0.2871294	     -0.0277129	      0.0000000
      0.2889200	     -0.0201765	      0.0000000
      0.2851042	     -0.0134751	      0.0000000
      0.2762335	     -0.0077307	      0.0000000
      0.2629618	     -0.0029868	      0.0000000
      0.2459874	      0.0007930	      0.0000000
      0.2260092	      0.0036508	      0.0000000
      0.2037551	      0.0056201	      0.0000000
      0.1799215	      0.0067460	      0.0000000
      0.1551843	      0.0070670	      0.0000000
      0.1302036	      0.0065970	      0.0000000
      0.1056167	      0.0053204	      0.0000000
      0.0820947	      0.0031873	      0.0000000
      0.0602375	      0.0002152	      0.0000000
      0.0407889	     -0.0034691	      0.0000000
      0.0239950	     -0.0069106	      0.0000000
      0.0107526	     -0.0086608	      0.0000000
      0.0000000	      0.0000000	      0.0000000
      0.0000000	      0.0000000	      0.0000000
     -0.0120465	     -0.0345074	      0.0000000
     -0.0115756	     -0.0579155	      0.0000000
      0.0013734	     -0.0724508	      0.0000000
      0.0163053	     -0.0795183	      0.0000000
      0.0338704	     -0.0807141	      0.0000000
      0.0503907	     -0.0775069	      0.0000000
      0.0646500	     -0.0712318	      0.0000000
      0.0752286	     -0.0630732	      0.0000000
      0.0814892	     -0.0540189	      0.0000000
      0.0830894	     -0.0448384	      0.0000000
      0.0800393	     -0.0360669	      0.0000000
      0.0725404	     -0.0280183	      0.0000000
      0.0609166	     -0.0208129	      0.0000000
      0.0455253	     -0.0144203	      0.0000000
      0.0266994	     -0.0087142	      0.0000000
      0.0047302	     -0.0035170	      0.0000000
     -0.0201697	      0.0013456	      0.0000000
     -0.0478245	      0.0060280	      0.0000000
     -0.0780977	      0.0106389	      0.0000000
     -0.1109057	      0.0152514	      0.0000000
     -0.1461828	      0.0199026	      0.0000000
     -0.1838667	      0.0245948	      0.0000000
     -0.2238827	      0.0292985	      0.0000000
     -0.2661352	      0.0339667	      0.0000000
     -0.3105062	      0.0385475	      0.0000000
     -0.3568470	      0.0429838	      0.0000000
     -0.4049801	      0.0472169	      0.0000000
     -0.4546992	      0.0511884	      0.0000000
     -0.5057714	      0.0548406	      0.0000000
     -0.5579406	      0.0581175	      0.0000000
     -0.6109306	      0.0609669	      0.0000000
     -0.6644468	      0.0633414	      0.0000000
     -0.7181792	      0.0651974	      0.0000000
     -0.7718058	      0.0664951	      0.0000000
     -0.8249958	      0.0671990	      0.0000000
     -0.8774124	      0.0672775	      0.0000000
     -0.9287162	      0.0667035	      0.0000000
     -0.9785672	      0.0654542	      0.0000000
     -1.0266280	      0.0635113	      0.0000000
     -1.0725655	      0.0608610	      0.0000000
     -1.1160532	      0.0574934	      0.0000000
     -1.1567729	      0.0534033	      0.0000000
     -1.1944161	      0.0485894	      0.0000000
     -1.2286857	      0.0430545	      0.0000000
     -1.2592965	      0.0368053	      0.0000000
     -1.2859767	      0.0298524	      0.0000000
     -1.3084670	      0.0222096	      0.0000000
     -1.3265172	      0.0138921	      0.0000000
     -1.3399017	      0.0049138	      0.0000000
     -1.3483749	     -0.0047338	      0.0000000
     -1.3517164	     -0.0150546	      0.0000000
     -1.3498132	     -0.0259867	      0.0000000
     -1.3425384	     -0.0374382	      0.0000000
     -1.3298115	     -0.0493208	      0.0000000
     -1.3115779	     -0.0615433	      0.0000000
     -1.2878156	     -0.0740104	      0.0000000
     -1.2585360	     -0.0866197	      0.0000000
     -1.2237866	     -0.0992602	      0.0000000
     -1.1836529	     -0.1118116	      0.0000000
     -1.1382616	     -0.1241431	      0.0000000
     -1.0877828	     -0.1361140	      0.0000000
     -1.0324337	     -0.1475739	      0.0000000
     -0.9724814	     -0.1583639	      0.0000000
     -0.9082454	     -0.1683177	      0.0000000
     -0.8401009	     -0.1772644	      0.0000000
     -0.7684807	     -0.1850308	      0.0000000
     -0.6938769	     -0.1914455	      0.0000000
     -0.6168418	     -0.1963422	      0.0000000
     -0.5379875	     -0.1995653	      0.0000000
     -0.4579848	     -0.2009752	      0.0000000
     -0.3775595	     -0.2004540	      0.0000000
     -0.2974876	     -0.1979125	      0.0000000
     -0.2185886	     -0.1932975	      0.0000000
     -0.1417152	     -0.1865995	      0.0000000
     -0.0677449	     -0.1778596	      0.0000000
      0.0024537	     -0.1671926	      0.0000000
      0.0679607	     -0.1547730	      0.0000000
      0.1280093	     -0.1408472	      0.0000000
      0.1818545	     -0.1256809	      0.0000000
      0.2288677	     -0.1096098	      0.0000000
      0.2685376	     -0.0930025	      0.0000000
      0.3004955	     -0.0762533	      0.0000000
      0.3245370	     -0.0597680	      0.0000000
      0.3406345	     -0.0439435	      0.0000000
      0.3489448	     -0.0291517	      0.0000000
      0.3498021	     -0.0157204	      0.0000000
      0.3437315	     -0.0039211	      0.0000000
      0.3313781	      0.0060863	      0.0000000
      0.3135812	      0.0142807	      0.0000000
      0.2912255	      0.0206784	      0.0000000
      0.2652076	      0.0253145	      0.0000000
      0.2364383	      0.0282546	      0.0000000
      0.2058156	      0.0295605	      0.0000000
      0.1742301	      0.0292672	      0.0000000
      0.1425416	      0.0273725	      0.0000000
      0.1116511	      0.0238358	      0.0000000
      0.0823421	      0.0186944	      0.0000000
      0.0557133	      0.0121119	      0.0000000
      0.0320991	      0.0050921	      0.0000000
      0.0139796	     -0.0010184	      0.0000000
      0.0000000	      0.0000000	      0.0000000
      0.0000000	      0.0000000	      0.0000000
     -0.0111227	     -0.0454396	      0.0000000
     -0.0098136	     -0.0773232	      0.0000000
      0.0033795	     -0.0975030	      0.0000000
      0.0180395	     -0.1073714	      0.0000000
      0.0348001	     -0.1088145	      0.0000000
      0.0499758	     -0.1037739	      0.0000000
      0.0623108	     -0.0941300	      0.0000000
      0.0703375	     -0.0815853	      0.0000000
      0.0733703	     -0.0675839	      0.0000000
      0.0710193	     -0.0532616	      0.0000000
      0.0632506	     -0.0394205	      0.0000000
      0.0502242	     -0.0265441	      0.0000000
      0.0322262	     -0.0148338	      0.0000000
      0.0095868	     -0.0042648	      0.0000000
     -0.0173942	      0.0053220	      0.0000000
     -0.0483800	      0.0141319	      0.0000000
     -0.0830791	      0.0223851	      0.0000000
     -0.1212677	      0.0302788	      0.0000000
     -0.1627646	      0.0379704	      0.0000000
     -0.2074204	      0.0455635	      0.0000000
     -0.2550934	      0.0531023	      0.0000000
     -0.3056349	      0.0605806	      0.0000000
     -0.3588772	      0.0679527	      0.0000000
     -0.4146285	      0.0751459	      0.0000000
     -0.4726676	      0.0820765	      0.0000000
     -0.5327409	      0.0886546	      0.0000000
     -0.5945644	      0.0947894	      0.0000000
     -0.6578250	      0.1003923	      0.0000000
     -0.7221846	      0.1053786	      0.0000000
     -0.7872841	      0.1096687	      0.0000000
     -0.8527477	      0.1131904	      0.0000000
     -0.9181865	      0.1158789	      0.0000000
     -0.9832027	      0.1176771	      0.0000000
     -1.0473940	      0.1185353	      0.0000000
     -1.1103572	      0.1184117	      0.0000000
     -1.1716924	      0.1172720	      0.0000000
     -1.2310063	      0.1150893	      0.0000000
     -1.2879152	      0.1118442	      0.0000000
     -1.3420478	      0.1075244	      0.0000000
     -1.3930471	      0.1021244	      0.0000000
     -1.4405725	      0.0956450	      0.0000000
     -1.4843013	      0.0880931	      0.0000000
     -1.5239292	      0.0794814	      0.0000000
     -1.5591718	      0.0698275	      0.0000000
     -1.5897643	      0.0591541	      0.0000000
     -1.6154624	      0.0474876	      0.0000000
     -1.6360405	      0.0348579	      0.0000000
     -1.6512905	      0.0212963	      0.0000000
     -1.6610428	      0.0068318	      0.0000000
     -1.6650968	     -0.0085303	      0.0000000
     -1.6633194	     -0.0247287	      0.0000000
     -1.6556917	     -0.0416397	      0.0000000
     -1.6421645	     -0.0591500	      0.0000000
     -1.6227293	     -0.0771418	      0.0000000
     -1.5973945	     -0.0954934	      0.0000000
     -1.5661941	     -0.1140755	      0.0000000
     -1.5291880	     -0.1327493	      0.0000000
     -1.4864647	     -0.1513652	      0.0000000
     -1.4381436	     -0.1697610	      0.0000000
     -1.3843777	     -0.1877618	      0.0000000
     -1.3253561	     -0.2051793	      0.0000000
     -1.2613078	     -0.2218128	      0.0000000
     -1.1925042	     -0.2374498	      0.0000000
     -1.1192632	     -0.2518680	      0.0000000
     -1.0419519	     -0.2648378	      0.0000000
     -0.9609900	     -0.2761256	      0.0000000
     -0.8768525	     -0.2854983	      0.0000000
     -0.7900717	     -0.2927280	      0.0000000
     -0.7012383	     -0.2975982	      0.0000000
     -0.6110018	     -0.2999108	      0.0000000
     -0.5200690	     -0.2994937	      0.0000000
     -0.4292015	     -0.2962093	      0.0000000
     -0.3392109	     -0.2899639	      0.0000000
     -0.2509522	     -0.2807175	      0.0000000
     -0.1653138	     -0.2684948	      0.0000000
     -0.0832113	     -0.2533952	      0.0000000
     -0.0055524	     -0.2356279	      0.0000000
      0.0666870	     -0.2154769	      0.0000000
      0.1326934	     -0.1933396	      0.0000000
      0.1916814	     -0.1696463	      0.0000000
      0.2429860	     -0.1448914	      0.0000000
      0.2860642	     -0.1196265	      0.0000000
      0.3205262	     -0.0944326	      0.0000000
      0.3461567	     -0.0698943	      0.0000000
      0.3629298	     -0.0465776	      0.0000000
      0.3710099	     -0.0250054	      0.0000000
      0.3707875	     -0.0056311	      0.0000000
      0.3627877	      0.0111866	      0.0000000
      0.3478534	      0.0252802	      0.0000000
      0.3269151	      0.0366147	      0.0000000
      0.3009476	      0.0451957	      0.0000000
      0.2709815	      0.0510782	      0.0000000
      0.2380587	      0.0543290	      0.0000000
      0.2032353	      0.0549947	      0.0000000
      0.1675431	      0.0530827	      0.0000000
      0.1320792	      0.0485525	      0.0000000
      0.0978086	      0.0414136	      0.0000000
      0.0661816	      0.0317703	      0.0000000
      0.0377243	      0.0203842	      0.0000000
      0.0161728	      0.0082895	      0.0000000
      0.0000000	      0.0000000	      0.0000000
      0.0000000	      0.0000000	      0.0000000
     -0.0106594	     -0.0564389	      0.0000000
     -0.0092497	     -0.0962473	      0.0000000
      0.0031510	     -0.1213988	      0.0000000
      0.0161164	     -0.1333648	      0.0000000
      0.0303150	     -0.1343763	      0.0000000
      0.0421656	     -0.1268464	      0.0000000
      0.0504969	     -0.1131887	      0.0000000
      0.0539080	     -0.0956111	      0.0000000
      0.0517530	     -0.0760028	      0.0000000
      0.0436536	     -0.0558571	      0.0000000
      0.0295607	     -0.0362299	      0.0000000
      0.0096082	     -0.0177621	      0.0000000
     -0.0159737	     -0.0007415	      0.0000000
     -0.0469186	      0.0148416	      0.0000000
     -0.0828110	      0.0290924	      0.0000000
     -0.1233162	      0.0422384	      0.0000000
     -0.1681264	      0.0545557	      0.0000000
     -0.2169793	      0.0662967	      0.0000000
     -0.2696375	      0.0776491	      0.0000000
     -0.3258731	      0.0887262	      0.0000000
     -0.3854510	      0.0995663	      0.0000000
     -0.4481184	      0.1101452	      0.0000000
     -0.5135968	      0.1203912	      0.0000000
     -0.5815797	      0.1302025	      0.0000000
     -0.6517305	      0.1394628	      0.0000000
     -0.7236827	      0.1480502	      0.0000000
     -0.7970427	      0.1558437	      0.0000000
     -0.8713940	      0.1627280	      0.0000000
     -0.9463016	      0.1685960	      0.0000000
     -1.0213177	      0.1733504	      0.0000000
     -1.0959871	      0.1769058	      0.0000000
     -1.1698516	      0.1791885	      0.0000000
     -1.2424555	      0.1801373	      0.0000000
     -1.3133501	      0.1797028	      0.0000000
     -1.3820982	      0.1778476	      0.0000000
     -1.4482778	      0.1745455	      0.0000000
     -1.5114856	      0.1697815	      0.0000000
     -1.5713397	      0.1635507	      0.0000000
     -1.6274815	      0.1558576	      0.0000000
     -1.6795773	      0.1467157	      0.0000000
     -1.7273196	      0.1361463	      0.0000000
     -1.7704271	      0.1241779	      0.0000000
     -1.8086451	      0.1108453	      0.0000000
     -1.8417452	      0.0961888	      0.0000000
     -1.8695249	      0.0802537	      0.0000000
     -1.8918067	      0.0630887	      0.0000000
     -1.9084363	      0.0447455	      0.0000000
     -1.9192822	      0.0252784	      0.0000000
     -1.9242624	      0.0047380	      0.0000000
     -1.9232260	     -0.0168386	      0.0000000
     -1.9162022	     -0.0393184	      0.0000000
     -1.9032121	     -0.0625341	      0.0000000
     -1.8842762	     -0.0863597	      0.0000000
     -1.8594337	     -0.1106582	      0.0000000
     -1.8287341	     -0.1352865	      0.0000000
     -1.7922418	     -0.1600909	      0.0000000
     -1.7500373	     -0.1849056	      0.0000000
     -1.7022207	     -0.2095512	      0.0000000
     -1.6489133	     -0.2338328	      0.0000000
     -1.5902613	     -0.2575395	      0.0000000
     -1.5264390	     -0.2804440	      0.0000000
     -1.4576522	     -0.3023025	      0.0000000
     -1.3841426	     -0.3228562	      0.0000000
     -1.3061915	     -0.3418329	      0.0000000
     -1.2241240	     -0.3589496	      0.0000000
     -1.1383133	     -0.3739165	      0.0000000
     -1.0491843	     -0.3864417	      0.0000000
     -0.9572165	     -0.3962371	      0.0000000
     -0.8629471	     -0.4030256	      0.0000000
     -0.7669724	     -0.4065491	      0.0000000
     -0.6699479	     -0.4065777	      0.0000000
     -0.5725874	     -0.4029201	      0.0000000
     -0.4756599	     -0.3954347	      0.0000000
     -0.3799850	     -0.3840415	      0.0000000
     -0.2864260	     -0.3687349	      0.0000000
     -0.1958804	     -0.3495984	      0.0000000
     -0.1092740	     -0.3268149	      0.0000000
     -0.0275346	     -0.3007080	      0.0000000
      0.0483577	     -0.2716995	      0.0000000
      0.1175264	     -0.2403479	      0.0000000
      0.1791804	     -0.2072697	      0.0000000
      0.2326270	     -0.1731352	      0.0000000
      0.2773124	     -0.1386935	      0.0000000
      0.3128397	     -0.1047105	      0.0000000
      0.3389908	     -0.0719480	      0.0000000
      0.3557396	     -0.0411376	      0.0000000
      0.3632893	     -0.0129380	      0.0000000
      0.3620121	      0.0120416	      0.0000000
      0.3525868	      0.0334132	      0.0000000
      0.3359300	      0.0510411	      0.0000000
      0.3130035	      0.0648601	      0.0000000
      0.2848782	      0.0748797	      0.0000000
      0.2526686	      0.0811442	      0.0000000
      0.2175352	      0.0836902	      0.0000000
      0.1806370	      0.0825147	      0.0000000
      0.1432347	      0.0775535	      0.0000000
      0.1064659	      0.0687370	      0.0000000
      0.0720911	      0.0560205	      0.0000000
      0.0408457	      0.0397400	      0.0000000
      0.0173518	      0.0203834	      0.0000000
      0.0000000	      0.0000000	      0.0000000
      0.0000000	      0.0000000	      0.0000000
     -0.0107643	     -0.0677444	      0.0000000
     -0.0100356	     -0.1146639	      0.0000000
      0.0004979	     -0.1437376	      0.0000000
      0.0104582	     -0.1567413	      0.0000000
      0.0205809	     -0.1563824	      0.0000000
      0.0274553	     -0.1455692	      0.0000000
      0.0300730	     -0.1272383	      0.0000000