# vtk DataFile Version 2.0
vw
ASCII
DATASET STRUCTURED_POINTS
DIMENSIONS  102  102    1
ORIGIN      0.0000000      0.0000000      0.0000000
SPACING      0.0100000      0.0100000      0.0100000
POINT_DATA  10404
VECTORS velocity float
      0.0000000	      0.0000000	      0.0000000
      0.0000000	      0.0000000	      0.0000000
      0.0000000	      0.0000000	      0.0000000
      0.0000000	      0.0000000	      0.0000000
      0.0000000	      0.0000000	      0.0000000
      0.0000000	      0.0000000	      0.0000000
      0.0000000	      0.0000000	      0.0000000
      0.0000000	      0.0000000	      0.0000000
      0.0000000	      0.0000000	      0.0000000
      0.0000000	      0.0000000	      0.0000000
      0.0000000	      0.0000000	      0.0000000
      0.0000000	      0.0000000	      0.0000000
      0.0000000	      0.0000000	      0.0000000
      0.0000000	      0.0000000	      0.0000000
      0.0000000	      0.0000000	      0.0000000
      0.0000000	      0.0000000	      0.0000000
      0.0000000	      0.0000000	      0.0000000
      0.0000000	      0.0000000	      0.0000000
      0.0000000	      0.0000000	      0.0000000
      0.0000000	      0.0000000	      0.0000000
      0.0000000	      0.0000000	      0.0000000
      0.0000000	      0.0000000	      0.0000000
      0.0000000	      0.0000000	      0.0000000
      0.0000000	      0.0000000	      0.0000000
      0.0000000	      0.0000000	      0.0000000
      0.0000000	      0.0000000	      0.0000000
      0.0000000	      0.0000000	      0.0000000
      0.0000000	      0.0000000	      0.0000000
      0.0000000	      0.0000000	      0.0000000
      0.0000000	      0.0000000	      0.0000000
      0.0000000	      0.0000000	      0.0000000
      0.0000000	      0.0000000	      0.0000000
      0.0000000	      0.0000000	      0.0000000
      0.0000000	      0.0000000	      0.0000000
      0.0000000	      0.0000000	      0.0000000
      0.0000000	      0.0000000	      0.0000000
      0.0000000	      0.0000000	      0.0000000
      0.0000000	      0.0000000	      0.0000000
      0.0000000	      0.0000000	      0.0000000
      0.0000000	      0.0000000	      0.0000000
      0.0000000	      0.0000000	      0.0000000
      0.0000000	      0.0000000	      0.0000000
      0.0000000	      0.0000000	      0.0000000
      0.0000000	      0.0000000	      0.0000000
      0.0000000	      0.0000000	      0.0000000
      0.0000000	      0.0000000	      0.0000000
      0.0000000	      0.0000000	      0.0000000
      0.0000000	      0.0000000	      0.0000000
      0.0000000	      0.0000000	      0.0000000
      0.0000000	      0.0000000	      0.0000000
      0.0000000	      0.0000000	      0.0000000
      0.0000000	      0.0000000	      0.0000000
      0.0000000	      0.0000000	      0.0000000
      0.0000000	      0.0000000	      0.0000000
      0.0000000	      0.0000000	      0.0000000
      0.0000000	      0.0000000	      0.0000000
      0.0000000	      0.0000000	      0.0000000
      0.0000000	      0.0000000	      0.0000000
      0.0000000	      0.0000000	      0.0000000
      0.0000000	      0.0000000	      0.0000000
      0.0000000	      0.0000000	      0.0000000
      0.0000000	      0.0000000	      0.0000000
      0.0000000	      0.0000000	      0.0000000
      0.0000000	      0.0000000	      0.0000000
      0.0000000	      0.0000000	      0.0000000
      0.0000000	      0.0000000	      0.0000000
      0.0000000	      0.0000000	      0.0000000
      0.0000000	      0.0000000	      0.0000000
      0.0000000	      0.0000000	      0.0000000
      0.0000000	      0.0000000	      0.0000000
      0.0000000	      0.0000000	      0.0000000
      0.0000000	      0.0000000	      0.0000000
      0.0000000	      0.0000000	      0.0000000
      0.0000000	      0.0000000	      0.0000000
      0.0000000	      0.0000000	      0.0000000
      0.0000000	      0.0000000	      0.0000000
      0.0000000	      0.0000000	      0.0000000
      0.0000000	      0.0000000	      0.0000000
      0.0000000	      0.0000000	      0.0000000
      0.0000000	      0.0000000	      0.0000000
      0.0000000	      0.0000000	      0.0000000
      0.0000000	      0.0000000	      0.0000000
      0.0000000	      0.0000000	      0.0000000
      0.0000000	      0.0000000	      0.0000000
      0.0000000	      0.0000000	      0.0000000
      0.0000000	      0.0000000	      0.0000000
      0.0000000	      0.0000000	      0.0000000
      0.0000000	      0.0000000	      0.0000000
      0.0000000	      0.0000000	      0.0000000
      0.0000000	      0.0000000	      0.0000000
      0.0000000	      0.0000000	      0.0000000
      0.0000000	      0.0000000	      0.0000000
      0.0000000	      0.0000000	      0.0000000
      0.0000000	      0.0000000	      0.0000000
      0.0000000	      0.0000000	      0.0000000
      0.0000000	      0.0000000	      0.0000000
      0.0000000	      0.0000000	      0.0000000
      0.0000000	      0.0000000	      0.0000000
      0.0000000	      0.0000000	      0.0000000
      0.0000000	      0.0000000	      0.0000000
      0.0000000	      0.0000000	      0.0000000
      0.0000000	      0.0000000	      0.0000000
      0.0000000	      0.0000000	      0.0000000
     -0.0037663	     -0.0040747	      0.0000000
     -0.0049354	     -0.0049185	      0.0000000
     -0.0048769	     -0.0050402	      0.0000000
     -0.0053397	     -0.0048767	      0.0000000
     -0.0057665	     -0.0046722	      0.0000000
     -0.0065296	     -0.0044843	      0.0000000
     -0.0074523	     -0.0043272	      0.0000000
     -0.0085895	     -0.0042032	      0.0000000
     -0.0098689	     -0.0041063	      0.0000000
     -0.0112814	     -0.0040326	      0.0000000
     -0.0127897	     -0.0039772	      0.0000000
     -0.0143765	     -0.0039367	      0.0000000
     -0.0160200	     -0.0039077	      0.0000000
     -0.0177062	     -0.0038880	      0.0000000
     -0.0194221	     -0.0038753	      0.0000000
     -0.0211582	     -0.0038681	      0.0000000
     -0.0229066	     -0.0038652	      0.0000000
     -0.0246614	     -0.0038656	      0.0000000
     -0.0264177	     -0.0038686	      0.0000000
     -0.0281717	     -0.0038738	      0.0000000
     -0.0299201	     -0.0038809	      0.0000000
     -0.0316601	     -0.0038897	      0.0000000
     -0.0333889	     -0.0039002	      0.0000000
     -0.0351038	     -0.0039126	      0.0000000
     -0.0368021	     -0.0039269	      0.0000000
     -0.0384805	     -0.0039434	      0.0000000
     -0.0401356	     -0.0039623	      0.0000000
     -0.0417637	     -0.0039840	      0.0000000
     -0.0433605	     -0.0040087	      0.0000000
     -0.0449213	     -0.0040367	      0.0000000
     -0.0464408	     -0.0040684	      0.0000000
     -0.0479134	     -0.0041041	      0.0000000
     -0.0493332	     -0.0041439	      0.0000000
     -0.0506934	     -0.0041883	      0.0000000
     -0.0519872	     -0.0042374	      0.0000000
     -0.0532073	     -0.0042915	      0.0000000
     -0.0543459	     -0.0043509	      0.0000000
     -0.0553951	     -0.0044157	      0.0000000
     -0.0563464	     -0.0044860	      0.0000000
     -0.0571913	     -0.0045621	      0.0000000
     -0.0579210	     -0.0046440	      0.0000000
     -0.0585265	     -0.0047316	      0.0000000
     -0.0589991	     -0.0048249	      0.0000000
     -0.0593301	     -0.0049237	      0.0000000
     -0.0595112	     -0.0050276	      0.0000000
     -0.0595345	     -0.0051361	      0.0000000
     -0.0593930	     -0.0052489	      0.0000000
     -0.0590800	     -0.0053652	      0.0000000
     -0.0585903	     -0.0054843	      0.0000000
     -0.0579193	     -0.0056053	      0.0000000
     -0.0570639	     -0.0057274	      0.0000000
     -0.0560221	     -0.0058495	      0.0000000
     -0.0547937	     -0.0059705	      0.0000000
     -0.0533798	     -0.0060893	      0.0000000
     -0.0517832	     -0.0062046	      0.0000000
     -0.0500085	     -0.0063153	      0.0000000
     -0.0480620	     -0.0064200	      0.0000000
     -0.0459518	     -0.0065175	      0.0000000
     -0.0436877	     -0.0066066	      0.0000000
     -0.0412812	     -0.0066861	      0.0000000
     -0.0387456	     -0.0067550	      0.0000000
     -0.0360955	     -0.0068121	      0.0000000
     -0.0333469	     -0.0068567	      0.0000000
     -0.0305173	     -0.0068881	      0.0000000
     -0.0276250	     -0.0069055	      0.0000000
     -0.0246891	     -0.0069086	      0.0000000
     -0.0217294	     -0.0068971	      0.0000000
     -0.0187660	     -0.0068710	      0.0000000
     -0.0158193	     -0.0068304	      0.0000000
     -0.0129093	     -0.0067755	      0.0000000
     -0.0100559	     -0.0067068	      0.0000000
     -0.0072782	     -0.0066251	      0.0000000
     -0.0045948	     -0.0065309	      0.0000000
     -0.0020230	     -0.0064253	      0.0000000
      0.0004208	     -0.0063092	      0.0000000
      0.0027215	     -0.0061838	      0.0000000
      0.0048653	     -0.0060501	      0.0000000
      0.0068401	     -0.0059094	      0.0000000
      0.0086347	     -0.0057626	      0.0000000
      0.0102397	     -0.0056109	      0.0000000
      0.0116467	     -0.0054553	      0.0000000
      0.0128487	     -0.0052968	      0.0000000
      0.0138399	     -0.0051362	      0.0000000
      0.0146154	     -0.0049745	      0.0000000
      0.0151720	     -0.0048127	      0.0000000
      0.0155074	     -0.0046516	      0.0000000
      0.0156208	     -0.0044923	      0.0000000
      0.0155132	     -0.0043361	      0.0000000
      0.0151875	     -0.0041845	      0.0000000
      0.0146495	     -0.0040397	      0.0000000
      0.0139083	     -0.0039044	      0.0000000
      0.0129780	     -0.0037827	      0.0000000
      0.0118786	     -0.0036798	      0.0000000
      0.0106377	     -0.0036034	      0.0000000
      0.0092927	     -0.0035614	      0.0000000
      0.0078861	     -0.0035643	      0.0000000
      0.0064766	     -0.0036048	      0.0000000
      0.0050755	     -0.0036623	      0.0000000
      0.0037395	     -0.0035503	      0.0000000
      0.0020948	     -0.0029429	      0.0000000
      0.0000000	      0.0000000	      0.0000000
      0.0000000	      0.0000000	      0.0000000
     -0.0047254	     -0.0054201	      0.0000000
     -0.0069389	     -0.0069680	      0.0000000
     -0.0080202	     -0.0073122	      0.0000000
     -0.0095039	     -0.0070656	      0.0000000
     -0.0109239	     -0.0066544	      0.0000000
     -0.0127264	     -0.0062151	      0.0000000
     -0.0147573	     -0.0058133	      0.0000000
     -0.0170954	     -0.0054698	      0.0000000
     -0.0196630	     -0.0051871	      0.0000000
     -0.0224466	     -0.0049615	      0.0000000
     -0.0253963	     -0.0047855	      0.0000000
     -0.0284833	     -0.0046518	      0.0000000
     -0.0316739	     -0.0045528	      0.0000000
     -0.0349436	     -0.0044822	      0.0000000
     -0.0382698	     -0.0044343	      0.0000000
     -0.0416352	     -0.0044044	      0.0000000
     -0.0450249	     -0.0043889	      0.0000000
     -0.0484274	     -0.0043848	      0.0000000
     -0.0518330	     -0.0043899	      0.0000000
     -0.0552336	     -0.0044027	      0.0000000
     -0.0586224	     -0.0044223	      0.0000000
     -0.0619931	     -0.0044480	      0.0000000
     -0.0653400	     -0.0044798	      0.0000000
     -0.0686572	     -0.0045177	      0.0000000
     -0.0719387	     -0.0045622	      0.0000000
     -0.0751781	     -0.0046140	      0.0000000
     -0.0783686	     -0.0046737	      0.0000000
     -0.0815025	     -0.0047422	      0.0000000
     -0.0845715	     -0.0048205	      0.0000000
     -0.0875666	     -0.0049093	      0.0000000
     -0.0904779	     -0.0050098	      0.0000000
     -0.0932946	     -0.0051228	      0.0000000
     -0.0960054	     -0.0052491	      0.0000000
     -0.0985980	     -0.0053897	      0.0000000
     -0.1010595	     -0.0055452	      0.0000000
     -0.1033765	     -0.0057166	      0.0000000
     -0.1055347	     -0.0059044	      0.0000000
     -0.1075195	     -0.0061092	      0.0000000
     -0.1093158	     -0.0063315	      0.0000000
     -0.1109081	     -0.0065718	      0.0000000
     -0.1122806	     -0.0068303	      0.0000000
     -0.1134176	     -0.0071067	      0.0000000
     -0.1143034	     -0.0074009	      0.0000000
     -0.1149229	     -0.0077121	      0.0000000
     -0.1152616	     -0.0080395	      0.0000000
     -0.1153058	     -0.0083816	      0.0000000
     -0.1150433	     -0.0087371	      0.0000000
     -0.1144630	     -0.0091038	      0.0000000
     -0.1135557	     -0.0094798	      0.0000000
     -0.1123142	     -0.0098623	      0.0000000
     -0.1107334	     -0.0102488	      0.0000000
     -0.1088105	     -0.0106361	      0.0000000
     -0.1065454	     -0.0110210	      0.0000000
     -0.1039409	     -0.0114000	      0.0000000
     -0.1010024	     -0.0117696	      0.0000000
     -0.0977384	     -0.0121260	      0.0000000
     -0.0941607	     -0.0124656	      0.0000000
     -0.0902838	     -0.0127846	      0.0000000
     -0.0861254	     -0.0130794	      0.0000000
     -0.0817061	     -0.0133465	      0.0000000
     -0.0770493	     -0.0135826	      0.0000000
     -0.0721812	     -0.0137847	      0.0000000
     -0.0671301	     -0.0139502	      0.0000000
     -0.0619266	     -0.0140767	      0.0000000
     -0.0566031	     -0.0141623	      0.0000000
     -0.0511933	     -0.0142057	      0.0000000
     -0.0457321	     -0.0142059	      0.0000000
     -0.0402551	     -0.0141626	      0.0000000
     -0.0347981	     -0.0140759	      0.0000000
     -0.0293969	     -0.0139465	      0.0000000
     -0.0240867	     -0.0137755	      0.0000000
     -0.0189018	     -0.0135644	      0.0000000
     -0.0138752	     -0.0133153	      0.0000000
     -0.0090387	     -0.0130306	      0.0000000
     -0.0044219	     -0.0127128	      0.0000000
     -0.0000528	     -0.0123650	      0.0000000
      0.0040431	     -0.0119903	      0.0000000
      0.0078423	     -0.0115918	      0.0000000
      0.0113241	     -0.0111725	      0.0000000
      0.0144696	     -0.0107354	      0.0000000
      0.0172626	     -0.0102834	      0.0000000
      0.0196884	     -0.0098192	      0.0000000
      0.0217351	     -0.0093454	      0.0000000
      0.0233923	     -0.0088649	      0.0000000
      0.0246521	     -0.0083804	      0.0000000
      0.0255090	     -0.0078947	      0.0000000
      0.0259599	     -0.0074114	      0.0000000
      0.0260051	     -0.0069343	      0.0000000
      0.0256484	     -0.0064685	      0.0000000
      0.0248989	     -0.0060204	      0.0000000
      0.0237711	     -0.0055983	      0.0000000
      0.0222876	     -0.0052134	      0.0000000
      0.0204797	     -0.0048791	      0.0000000
      0.0183896	     -0.0046128	      0.0000000
      0.0160691	     -0.0044305	      0.0000000
      0.0135791	     -0.0043488	      0.0000000
      0.0109821	     -0.0043496	      0.0000000
      0.0083234	     -0.0043886	      0.0000000
      0.0056267	     -0.0041898	      0.0000000
      0.0028512	     -0.0033529	      0.0000000
      0.0000000	      0.0000000	      0.0000000
      0.0000000	      0.0000000	      0.0000000
     -0.0051201	     -0.0052148	      0.0000000
     -0.0081133	     -0.0072506	      0.0000000
     -0.0102789	     -0.0077952	      0.0000000
     -0.0128667	     -0.0074921	      0.0000000
     -0.0154319	     -0.0068618	      0.0000000
     -0.0183986	     -0.0061226	      0.0000000
     -0.0216327	     -0.0054065	      0.0000000
     -0.0252194	     -0.0047651	      0.0000000
     -0.0290858	     -0.0042195	      0.0000000
     -0.0332178	     -0.0037714	      0.0000000
     -0.0375615	     -0.0034139	      0.0000000
     -0.0420828	     -0.0031362	      0.0000000
     -0.0467412	     -0.0029267	      0.0000000
     -0.0515056	     -0.0027741	      0.0000000
     -0.0563470	     -0.0026681	      0.0000000
     -0.0612422	     -0.0026000	      0.0000000
     -0.0661709	     -0.0025625	      0.0000000
     -0.0711168	     -0.0025500	      0.0000000
     -0.0760659	     -0.0025579	      0.0000000
     -0.0810062	     -0.0025832	      0.0000000
     -0.0859274	     -0.0026237	      0.0000000
     -0.0908198	     -0.0026784	      0.0000000
     -0.0956744	     -0.0027467	      0.0000000
     -0.1004821	     -0.0028290	      0.0000000
     -0.1052339	     -0.0029260	      0.0000000
     -0.1099200	     -0.0030388	      0.0000000
     -0.1145300	     -0.0031690	      0.0000000
     -0.1190527	     -0.0033181	      0.0000000
     -0.1234760	     -0.0034879	      0.0000000
     -0.1277866	     -0.0036805	      0.0000000
     -0.1319704	     -0.0038977	      0.0000000
     -0.1360121	     -0.0041412	      0.0000000
     -0.1398953	     -0.0044130	      0.0000000
     -0.1436030	     -0.0047146	      0.0000000
     -0.1471169	     -0.0050477	      0.0000000
     -0.1504182	     -0.0054136	      0.0000000
     -0.1534874	     -0.0058138	      0.0000000
     -0.1563041	     -0.0062494	      0.0000000
     -0.1588478	     -0.0067214	      0.0000000
     -0.1610972	     -0.0072304	      0.0000000
     -0.1630312	     -0.0077767	      0.0000000
     -0.1646283	     -0.0083601	      0.0000000
     -0.1658679	     -0.0089797	      0.0000000
     -0.1667297	     -0.0096343	      0.0000000
     -0.1671947	     -0.0103218	      0.0000000
     -0.1672449	     -0.0110396	      0.0000000
     -0.1668645	     -0.0117844	      0.0000000
     -0.1660393	     -0.0125523	      0.0000000
     -0.1647577	     -0.0133388	      0.0000000
     -0.1630108	     -0.0141388	      0.0000000
     -0.1607925	     -0.0149468	      0.0000000
     -0.1581001	     -0.0157565	      0.0000000
     -0.1549343	     -0.0165616	      0.0000000
     -0.1512997	     -0.0173549	      0.0000000
     -0.1472043	     -0.0181295	      0.0000000
     -0.1426606	     -0.0188778	      0.0000000
     -0.1376847	     -0.0195924	      0.0000000
     -0.1322969	     -0.0202660	      0.0000000
     -0.1265215	     -0.0208912	      0.0000000
     -0.1203865	     -0.0214612	      0.0000000
     -0.1139236	     -0.0219693	      0.0000000
     -0.1071680	     -0.0224095	      0.0000000
     -0.1001579	     -0.0227765	      0.0000000
     -0.0929343	     -0.0230656	      0.0000000
     -0.0855406	     -0.0232730	      0.0000000
     -0.0780219	     -0.0233957	      0.0000000
     -0.0704250	     -0.0234319	      0.0000000
     -0.0627974	     -0.0233806	      0.0000000
     -0.0551871	     -0.0232418	      0.0000000
     -0.0476422	     -0.0230166	      0.0000000
     -0.0402098	     -0.0227070	      0.0000000
     -0.0329364	     -0.0223158	      0.0000000
     -0.0258666	     -0.0218467	      0.0000000
     -0.0190435	     -0.0213041	      0.0000000
     -0.0125078	     -0.0206929	      0.0000000
     -0.0062978	     -0.0200185	      0.0000000
     -0.0004491	     -0.0192868	      0.0000000
      0.0050054	     -0.0185038	      0.0000000
      0.0100361	     -0.0176754	      0.0000000
      0.0146161	     -0.0168073	      0.0000000
      0.0187216	     -0.0159051	      0.0000000
      0.0223314	     -0.0149741	      0.0000000
      0.0254271	     -0.0140196	      0.0000000
      0.0279931	     -0.0130469	      0.0000000
      0.0300166	     -0.0120618	      0.0000000
      0.0314880	     -0.0110702	      0.0000000
      0.0324014	     -0.0100791	      0.0000000
      0.0327550	     -0.0090968	      0.0000000
      0.0325520	     -0.0081335	      0.0000000
      0.0318021	     -0.0072022	      0.0000000
      0.0305224	     -0.0063192	      0.0000000
      0.0287398	     -0.0055051	      0.0000000
      0.0264909	     -0.0047844	      0.0000000
      0.0238267	     -0.0041860	      0.0000000
      0.0208063	     -0.0037355	      0.0000000
      0.0175072	     -0.0034551	      0.0000000
      0.0139996	     -0.0033224	      0.0000000
      0.0103856	     -0.0032788	      0.0000000
      0.0067108	     -0.0030569	      0.0000000
      0.0032122	     -0.0023159	      0.0000000
      0.0000000	      0.0000000	      0.0000000
      0.0000000	      0.0000000	      0.0000000
     -0.0053016	     -0.0050430	      0.0000000
     -0.0088798	     -0.0071256	      0.0000000
     -0.0119960	     -0.0076282	      0.0000000
     -0.0156623	     -0.0071699	      0.0000000
     -0.0193974	     -0.0062799	      0.0000000
     -0.0235661	     -0.0052226	      0.0000000
     -0.0280330	     -0.0041722	      0.0000000
     -0.0328775	     -0.0032088	      0.0000000
     -0.0380299	     -0.0023722	      0.0000000
     -0.0434760	     -0.0016721	      0.0000000
     -0.0491613	     -0.0011044	      0.0000000
     -0.0550495	     -0.0006570	      0.0000000
     -0.0610969	     -0.0003148	      0.0000000
     -0.0672684	     -0.0000623	      0.0000000
     -0.0735310	      0.0001152	      0.0000000
     -0.0798572	      0.0002306	      0.0000000
     -0.0862228	      0.0002949	      0.0000000
     -0.0926075	      0.0003168	      0.0000000
     -0.0989936	      0.0003033	      0.0000000
     -0.1053658	      0.0002593	      0.0000000
     -0.1117102	      0.0001882	      0.0000000
     -0.1180140	      0.0000919	      0.0000000
     -0.1242651	     -0.0000289	      0.0000000
     -0.1304513	     -0.0001745	      0.0000000
     -0.1365602	     -0.0003460	      0.0000000
     -0.1425788	     -0.0005452	      0.0000000
     -0.1484935	     -0.0007744	      0.0000000
     -0.1542895	     -0.0010363	      0.0000000
     -0.1599509	     -0.0013337	      0.0000000
     -0.1654609	     -0.0016698	      0.0000000
     -0.1708011	     -0.0020474	      0.0000000
     -0.1759520	     -0.0024696	      0.0000000
     -0.1808931	     -0.0029391	      0.0000000
     -0.1856024	     -0.0034587	      0.0000000
     -0.1900575	     -0.0040309	      0.0000000
     -0.1942346	     -0.0046579	      0.0000000
     -0.1981096	     -0.0053415	      0.0000000
     -0.2016577	     -0.0060835	      0.0000000
     -0.2048534	     -0.0068853	      0.0000000
     -0.2076712	     -0.0077479	      0.0000000
     -0.2100853	     -0.0086715	      0.0000000
     -0.2120702	     -0.0096554	      0.0000000
     -0.2136010	     -0.0106983	      0.0000000
     -0.2146538	     -0.0117976	      0.0000000
     -0.2152062	     -0.0129500	      0.0000000
     -0.2152374	     -0.0141509	      0.0000000
     -0.2147289	     -0.0153949	      0.0000000
     -0.2136648	     -0.0166756	      0.0000000
     -0.2120320	     -0.0179856	      0.0000000
     -0.2098210	     -0.0193166	      0.0000000
     -0.2070256	     -0.0206595	      0.0000000
     -0.2036437	     -0.0220042	      0.0000000
     -0.1996774	     -0.0233403	      0.0000000
     -0.1951333	     -0.0246566	      0.0000000
     -0.1900223	     -0.0259415	      0.0000000
     -0.1843604	     -0.0271833	      0.0000000
     -0.1781680	     -0.0283699	      0.0000000
     -0.1714704	     -0.0294897	      0.0000000
     -0.1642975	     -0.0305310	      0.0000000
     -0.1566836	     -0.0314828	      0.0000000
     -0.1486674	     -0.0323345	      0.0000000
     -0.1402915	     -0.0330767	      0.0000000
     -0.1316021	     -0.0337008	      0.0000000
     -0.1226485	     -0.0341992	      0.0000000
     -0.1134830	     -0.0345659	      0.0000000
     -0.1041597	     -0.0347961	      0.0000000
     -0.0947347	     -0.0348868	      0.0000000
     -0.0852652	     -0.0348361	      0.0000000
     -0.0758085	     -0.0346440	      0.0000000
     -0.0664224	     -0.0343120	      0.0000000
     -0.0571636	     -0.0338430	      0.0000000
     -0.0480879	     -0.0332412	      0.0000000
     -0.0392493	     -0.0325122	      0.0000000
     -0.0306998	     -0.0316626	      0.0000000
     -0.0224889	     -0.0307000	      0.0000000
     -0.0146633	     -0.0296325	      0.0000000
     -0.0072666	     -0.0284691	      0.0000000
     -0.0003393	     -0.0272189	      0.0000000
      0.0060810	     -0.0258914	      0.0000000
      0.0119609	     -0.0244955	      0.0000000
      0.0172702	     -0.0230399	      0.0000000
      0.0219817	     -0.0215331	      0.0000000
      0.0260717	     -0.0199836	      0.0000000
      0.0295195	     -0.0183997	      0.0000000
      0.0323079	     -0.0167907	      0.0000000
      0.0344235	     -0.0151664	      0.0000000
      0.0358571	     -0.0135381	      0.0000000
      0.0366045	     -0.0119191	      0.0000000
      0.0366674	     -0.0103262	      0.0000000
      0.0360549	     -0.0087796	      0.0000000
      0.0347845	     -0.0073050	      0.0000000
      0.0328852	     -0.0059335	      0.0000000
      0.0303964	     -0.0047018	      0.0000000
      0.0273745	     -0.0036518	      0.0000000
      0.0238850	     -0.0028223	      0.0000000
      0.0200214	     -0.0022474	      0.0000000
      0.0158698	     -0.0019202	      0.0000000
      0.0115928	     -0.0017990	      0.0000000
      0.0072840	     -0.0016839	      0.0000000
      0.0033653	     -0.0013213	      0.0000000
      0.0000000	      0.0000000	      0.0000000
      0.0000000	      0.0000000	      0.0000000
     -0.0054451	     -0.0043216	      0.0000000
     -0.0095034	     -0.0060688	      0.0000000
     -0.0134318	     -0.0062908	      0.0000000
     -0.0180806	     -0.0055392	      0.0000000
     -0.0229235	     -0.0043123	      0.0000000
     -0.0282582	     -0.0028921	      0.0000000
     -0.0339323	     -0.0014759	      0.0000000
     -0.0400079	     -0.0001644	      0.0000000
     -0.0464118	      0.0009880	      0.0000000
     -0.0531264	      0.0019637	      0.0000000
     -0.0600965	      0.0027637	      0.0000000
     -0.0672839	      0.0034006	      0.0000000
     -0.0746432	      0.0038923	      0.0000000
     -0.0821371	      0.0042581	      0.0000000
     -0.0897299	      0.0045168	      0.0000000
     -0.0973914	      0.0046857	      0.0000000
     -0.1050943	      0.0047793	      0.0000000
     -0.1128153	      0.0048097	      0.0000000
     -0.1205338	      0.0047863	      0.0000000
     -0.1282315	      0.0047161	      0.0000000
     -0.1358914	      0.0046037	      0.0000000
     -0.1434979	      0.0044519	      0.0000000
     -0.1510359	      0.0042617	      0.0000000
     -0.1584902	      0.0040326	      0.0000000
     -0.1658453	      0.0037632	      0.0000000
     -0.1730853	      0.0034509	      0.0000000
     -0.1801932	      0.0030925	      0.0000000
     -0.1871509	      0.0026841	      0.0000000
     -0.1939393	      0.0022217	      0.0000000
     -0.2005378	      0.0017010	      0.0000000
     -0.2069243	      0.0011176	      0.0000000
     -0.2130756	      0.0004671	      0.0000000
     -0.2189670	     -0.0002543	      0.0000000
     -0.2245723	     -0.0010504	      0.0000000
     -0.2298650	     -0.0019246	      0.0000000
     -0.2348174	     -0.0028798	      0.0000000
     -0.2394010	     -0.0039186	      0.0000000
     -0.2435872	     -0.0050433	      0.0000000
     -0.2473469	     -0.0062555	      0.0000000
     -0.2506508	     -0.0075565	      0.0000000
     -0.2534695	     -0.0089461	      0.0000000
     -0.2557741	     -0.0104232	      0.0000000
     -0.2575368	     -0.0119855	      0.0000000
     -0.2587309	     -0.0136290	      0.0000000
     -0.2593314	     -0.0153484	      0.0000000
     -0.2593157	     -0.0171370	      0.0000000
     -0.2586637	     -0.0189867	      0.0000000
     -0.2573584	     -0.0208880	      0.0000000
     -0.2553863	     -0.0228300	      0.0000000
     -0.2527377	     -0.0248006	      0.0000000
     -0.2494070	     -0.0267863	      0.0000000
     -0.2453933	     -0.0287730	      0.0000000
     -0.2407004	     -0.0307452	      0.0000000
     -0.2353371	     -0.0326869	      0.0000000
     -0.2293173	     -0.0345815	      0.0000000
     -0.2226604	     -0.0364121	      0.0000000
     -0.2153908	     -0.0381616	      0.0000000
     -0.2075383	     -0.0398133	      0.0000000
     -0.1991379	     -0.0413506	      0.0000000
     -0.1902295	     -0.0427577	      0.0000000
     -0.1808577	     -0.0440199	      0.0000000
     -0.1710714	     -0.0451235	      0.0000000
     -0.1609236	     -0.0460562	      0.0000000
     -0.1504706	     -0.0468076	      0.0000000
     -0.1397718	     -0.0473689	      0.0000000
     -0.1288891	     -0.0477333	      0.0000000
     -0.1178860	     -0.0478962	      0.0000000
     -0.1068272	     -0.0478552	      0.0000000
     -0.0957782	     -0.0476100	      0.0000000
     -0.0848042	     -0.0471623	      0.0000000
     -0.0739696	     -0.0465163	      0.0000000
     -0.0633379	     -0.0456776	      0.0000000
     -0.0529703	     -0.0446540	      0.0000000
     -0.0429261	     -0.0434545	      0.0000000
     -0.0332617	     -0.0420895	      0.0000000
     -0.0240304	     -0.0405706	      0.0000000
     -0.0152823	     -0.0389097	      0.0000000
     -0.0070640	     -0.0371196	      0.0000000
      0.0005815	     -0.0352133	      0.0000000
      0.0076145	     -0.0332038	      0.0000000
      0.0139997	     -0.0311034	      0.0000000
      0.0197055	     -0.0289240	      0.0000000
      0.0247035	     -0.0266776	      0.0000000
      0.0289691	     -0.0243763	      0.0000000
      0.0324812	     -0.0220332	      0.0000000
      0.0352233	     -0.0196624	      0.0000000
      0.0371831	     -0.0172802	      0.0000000
      0.0383541	     -0.0149060	      0.0000000
      0.0387364	     -0.0125633	      0.0000000
      0.0383380	     -0.0102812	      0.0000000
      0.0371763	     -0.0080952	      0.0000000
      0.0352810	     -0.0060489	      0.0000000
      0.0326940	     -0.0041927	      0.0000000
      0.0294769	     -0.0025843	      0.0000000
      0.0257021	     -0.0012806	      0.0000000
      0.0214809	     -0.0003361	      0.0000000
      0.0169191	      0.0002259	      0.0000000
      0.0122308	      0.0004074	      0.0000000
      0.0075521	      0.0003133	      0.0000000
      0.0034131	      0.0000741	      0.0000000
      0.0000000	      0.0000000	      0.0000000
      0.0000000	      0.0000000	      0.0000000
     -0.0055868	     -0.0034306	      0.0000000
     -0.0100598	     -0.0045374	      0.0000000
     -0.0146926	     -0.0042367	      0.0000000
     -0.0202275	     -0.0030256	      0.0000000
     -0.0260955	     -0.0013604	      0.0000000
     -0.0325312	      0.0004809	      0.0000000
     -0.0393568	      0.0022968	      0.0000000