# vtk DataFile Version 2.0
vw
ASCII
DATASET STRUCTURED_POINTS
DIMENSIONS  102  102    1
ORIGIN      0.0000000      0.0000000      0.0000000
SPACING      0.0100000      0.0100000      0.0100000
POINT_DATA  10404
VECTORS velocity float
      0.0000000	      0.0000000	      0.0000000
      0.0000000	      0.0000000	      0.0000000
      0.0000000	      0.0000000	      0.0000000
      0.0000000	      0.0000000	      0.0000000
      0.0000000	      0.0000000	      0.0000000
      0.0000000	      0.0000000	      0.0000000
      0.0000000	      0.0000000	      0.0000000
      0.0000000	      0.0000000	      0.0000000
      0.0000000	      0.0000000	      0.0000000
      0.0000000	      0.0000000	      0.0000000
      0.0000000	      0.0000000	      0.0000000
      0.0000000	      0.0000000	      0.0000000
      0.0000000	      0.0000000	      0.0000000
      0.0000000	      0.0000000	      0.0000000
      0.0000000	      0.0000000	      0.0000000
      0.0000000	      0.0000000	      0.0000000
      0.0000000	      0.0000000	      0.0000000
      0.0000000	      0.0000000	      0.0000000
      0.0000000	      0.0000000	      0.0000000
      0.0000000	      0.0000000	      0.0000000
      0.0000000	      0.0000000	      0.0000000
      0.0000000	      0.0000000	      0.0000000
      0.0000000	      0.0000000	      0.0000000
      0.0000000	      0.0000000	      0.0000000
      0.0000000	      0.0000000	      0.0000000
      0.0000000	      0.0000000	      0.0000000
      0.0000000	      0.0000000	      0.0000000
      0.0000000	      0.0000000	      0.0000000
      0.0000000	      0.0000000	      0.0000000
      0.0000000	      0.0000000	      0.0000000
      0.0000000	      0.0000000	      0.0000000
      0.0000000	      0.0000000	      0.0000000
      0.0000000	      0.0000000	      0.0000000
      0.0000000	      0.0000000	      0.0000000
      0.0000000	      0.0000000	      0.0000000
      0.0000000	      0.0000000	      0.0000000
      0.0000000	      0.0000000	      0.0000000
      0.0000000	      0.0000000	      0.0000000
      0.0000000	      0.0000000	      0.0000000
      0.0000000	      0.0000000	      0.0000000
      0.0000000	      0.0000000	      0.0000000
      0.0000000	      0.0000000	      0.0000000
      0.0000000	      0.0000000	      0.0000000
      0.0000000	      0.0000000	      0.0000000
      0.0000000	      0.0000000	      0.0000000
      0.0000000	      0.0000000	      0.0000000
      0.0000000	      0.0000000	      0.0000000
      0.0000000	      0.0000000	      0.0000000
      0.0000000	      0.0000000	      0.0000000
      0.0000000	      0.0000000	      0.0000000
      0.0000000	      0.0000000	      0.0000000
      0.0000000	      0.0000000	      0.0000000
      0.0000000	      0.0000000	      0.0000000
      0.0000000	      0.0000000	      0.0000000
      0.0000000	      0.0000000	      0.0000000
      0.0000000	      0.0000000	      0.0000000
      0.0000000	      0.0000000	      0.0000000
      0.0000000	      0.0000000	      0.0000000
      0.0000000	      0.0000000	      0.0000000
      0.0000000	      0.0000000	      0.0000000
      0.0000000	      0.0000000	      0.0000000
      0.0000000	      0.0000000	      0.0000000
      0.0000000	      0.0000000	      0.0000000
      0.0000000	      0.0000000	      0.0000000
      0.0000000	      0.0000000	      0.0000000
      0.0000000	      0.0000000	      0.0000000
      0.0000000	      0.0000000	      0.0000000
      0.0000000	      0.0000000	      0.0000000
      0.0000000	      0.0000000	      0.0000000
      0.0000000	      0.0000000	      0.0000000
      0.0000000	      0.0000000	      0.0000000
      0.0000000	      0.0000000	      0.0000000
      0.0000000	      0.0000000	      0.0000000
      0.0000000	      0.0000000	      0.0000000
      0.0000000	      0.0000000	      0.0000000
      0.0000000	      0.0000000	      0.0000000
      0.0000000	      0.0000000	      0.0000000
      0.0000000	      0.0000000	      0.0000000
      0.0000000	      0.0000000	      0.0000000
      0.0000000	      0.0000000	      0.0000000
      0.0000000	      0.0000000	      0.0000000
      0.0000000	      0.0000000	      0.0000000
      0.0000000	      0.0000000	      0.0000000
      0.0000000	      0.0000000	      0.0000000
      0.0000000	      0.0000000	      0.0000000
      0.0000000	      0.0000000	      0.0000000
      0.0000000	      0.0000000	      0.0000000
      0.0000000	      0.0000000	      0.0000000
      0.0000000	      0.0000000	      0.0000000
      0.0000000	      0.0000000	      0.0000000
      0.0000000	      0.0000000	      0.0000000
      0.0000000	      0.0000000	      0.0000000
      0.0000000	      0.0000000	      0.0000000
      0.0000000	      0.0000000	      0.0000000
      0.0000000	      0.0000000	      0.0000000
      0.0000000	      0.0000000	      0.0000000
      0.0000000	      0.0000000	      0.0000000
      0.0000000	      0.0000000	      0.0000000
      0.0000000	      0.0000000	      0.0000000
      0.0000000	      0.0000000	      0.0000000
      0.0000000	      0.0000000	      0.0000000
      0.0000000	      0.0000000	      0.0000000
      0.0000000	      0.0000000	      0.0000000
     -0.0009320	     -0.0013453	      0.0000000
     -0.0010316	     -0.0016415	      0.0000000
     -0.0007683	     -0.0016728	      0.0000000
     -0.0008108	     -0.0015341	      0.0000000
     -0.0009295	     -0.0013791	      0.0000000
     -0.0013529	     -0.0012158	      0.0000000
     -0.0019340	     -0.0010758	      0.0000000
     -0.0027448	     -0.0009550	      0.0000000
     -0.0036926	     -0.0008584	      0.0000000
     -0.0047937	     -0.0007808	      0.0000000
     -0.0059908	     -0.0007210	      0.0000000
     -0.0072829	     -0.0006746	      0.0000000
     -0.0086360	     -0.0006392	      0.0000000
     -0.0100456	     -0.0006117	      0.0000000
     -0.0114930	     -0.0005900	      0.0000000
     -0.0129751	     -0.0005720	      0.0000000
     -0.0144824	     -0.0005563	      0.0000000
     -0.0160136	     -0.0005419	      0.0000000
     -0.0175643	     -0.0005281	      0.0000000
     -0.0191343	     -0.0005145	      0.0000000
     -0.0207214	     -0.0005010	      0.0000000
     -0.0223252	     -0.0004876	      0.0000000
     -0.0239442	     -0.0004746	      0.0000000
     -0.0255769	     -0.0004623	      0.0000000
     -0.0272210	     -0.0004513	      0.0000000
     -0.0288736	     -0.0004420	      0.0000000
     -0.0305308	     -0.0004350	      0.0000000
     -0.0321882	     -0.0004308	      0.0000000
     -0.0338401	     -0.0004302	      0.0000000
     -0.0354802	     -0.0004336	      0.0000000
     -0.0371011	     -0.0004416	      0.0000000
     -0.0386947	     -0.0004548	      0.0000000
     -0.0402521	     -0.0004737	      0.0000000
     -0.0417637	     -0.0004988	      0.0000000
     -0.0432191	     -0.0005304	      0.0000000
     -0.0446074	     -0.0005690	      0.0000000
     -0.0459173	     -0.0006148	      0.0000000
     -0.0471371	     -0.0006680	      0.0000000
     -0.0482549	     -0.0007289	      0.0000000
     -0.0492586	     -0.0007974	      0.0000000
     -0.0501363	     -0.0008735	      0.0000000
     -0.0508761	     -0.0009573	      0.0000000
     -0.0514665	     -0.0010484	      0.0000000
     -0.0518962	     -0.0011468	      0.0000000
     -0.0521544	     -0.0012522	      0.0000000
     -0.0522311	     -0.0013641	      0.0000000
     -0.0521171	     -0.0014818	      0.0000000
     -0.0518043	     -0.0016045	      0.0000000
     -0.0512862	     -0.0017314	      0.0000000
     -0.0505576	     -0.0018615	      0.0000000
     -0.0496153	     -0.0019935	      0.0000000
     -0.0484575	     -0.0021263	      0.0000000
     -0.0470847	     -0.0022586	      0.0000000
     -0.0454993	     -0.0023889	      0.0000000
     -0.0437061	     -0.0025159	      0.0000000
     -0.0417120	     -0.0026379	      0.0000000
     -0.0395261	     -0.0027536	      0.0000000
     -0.0371600	     -0.0028612	      0.0000000
     -0.0346277	     -0.0029594	      0.0000000
     -0.0319453	     -0.0030466	      0.0000000
     -0.0291311	     -0.0031214	      0.0000000
     -0.0262054	     -0.0031825	      0.0000000
     -0.0231905	     -0.0032289	      0.0000000
     -0.0201100	     -0.0032594	      0.0000000
     -0.0169892	     -0.0032734	      0.0000000
     -0.0138541	     -0.0032704	      0.0000000
     -0.0107315	     -0.0032500	      0.0000000
     -0.0076483	     -0.0032122	      0.0000000
     -0.0046313	     -0.0031574	      0.0000000
     -0.0017068	     -0.0030860	      0.0000000
      0.0010999	     -0.0029990	      0.0000000
      0.0037650	     -0.0028974	      0.0000000
      0.0062664	     -0.0027827	      0.0000000
      0.0085842	     -0.0026561	      0.0000000
      0.0107006	     -0.0025194	      0.0000000
      0.0126005	     -0.0023742	      0.0000000
      0.0142709	     -0.0022223	      0.0000000
      0.0157024	     -0.0020655	      0.0000000
      0.0168873	     -0.0019056	      0.0000000
      0.0178217	     -0.0017445	      0.0000000
      0.0185032	     -0.0015836	      0.0000000
      0.0189334	     -0.0014247	      0.0000000
      0.0191146	     -0.0012692	      0.0000000
      0.0190537	     -0.0011185	      0.0000000
      0.0187567	     -0.0009738	      0.0000000
      0.0182362	     -0.0008367	      0.0000000
      0.0175012	     -0.0007078	      0.0000000
      0.0165701	     -0.0005891	      0.0000000
      0.0154544	     -0.0004815	      0.0000000
      0.0141810	     -0.0003878	      0.0000000
      0.0127647	     -0.0003096	      0.0000000
      0.0112452	     -0.0002524	      0.0000000
      0.0096430	     -0.0002184	      0.0000000
      0.0080162	     -0.0002178	      0.0000000
      0.0063954	     -0.0002520	      0.0000000
      0.0048598	     -0.0003392	      0.0000000
      0.0034556	     -0.0004671	      0.0000000
      0.0022607	     -0.0006547	      0.0000000
      0.0013312	     -0.0007962	      0.0000000
      0.0005885	     -0.0008107	      0.0000000
      0.0000000	      0.0000000	      0.0000000
      0.0000000	      0.0000000	      0.0000000
     -0.0011615	     -0.0019706	      0.0000000
     -0.0015174	     -0.0024634	      0.0000000
     -0.0016401	     -0.0024658	      0.0000000
     -0.0021110	     -0.0021239	      0.0000000
     -0.0027633	     -0.0017136	      0.0000000
     -0.0038427	     -0.0012671	      0.0000000
     -0.0052090	     -0.0008638	      0.0000000
     -0.0069370	     -0.0005026	      0.0000000
     -0.0089188	     -0.0002028	      0.0000000
     -0.0111610	      0.0000458	      0.0000000
     -0.0135878	      0.0002431	      0.0000000
     -0.0161853	      0.0004002	      0.0000000
     -0.0189043	      0.0005225	      0.0000000
     -0.0217297	      0.0006191	      0.0000000
     -0.0246320	      0.0006954	      0.0000000
     -0.0276007	      0.0007580	      0.0000000
     -0.0306197	      0.0008106	      0.0000000
     -0.0336829	      0.0008569	      0.0000000
     -0.0367819	      0.0008991	      0.0000000
     -0.0399134	      0.0009385	      0.0000000
     -0.0430725	      0.0009757	      0.0000000
     -0.0462562	      0.0010107	      0.0000000
     -0.0494603	      0.0010427	      0.0000000
     -0.0526805	      0.0010709	      0.0000000
     -0.0559113	      0.0010937	      0.0000000
     -0.0591461	      0.0011098	      0.0000000
     -0.0623768	      0.0011173	      0.0000000
     -0.0655939	      0.0011145	      0.0000000
     -0.0687864	      0.0010996	      0.0000000
     -0.0719417	      0.0010708	      0.0000000
     -0.0750456	      0.0010263	      0.0000000
     -0.0780828	      0.0009644	      0.0000000
     -0.0810364	      0.0008837	      0.0000000
     -0.0838882	      0.0007827	      0.0000000
     -0.0866191	      0.0006602	      0.0000000
     -0.0892092	      0.0005151	      0.0000000
     -0.0916377	      0.0003466	      0.0000000
     -0.0938833	      0.0001541	      0.0000000
     -0.0959246	     -0.0000627	      0.0000000
     -0.0977400	     -0.0003039	      0.0000000
     -0.0993081	     -0.0005692	      0.0000000
     -0.1006081	     -0.0008583	      0.0000000
     -0.1016198	     -0.0011705	      0.0000000
     -0.1023240	     -0.0015051	      0.0000000
     -0.1027022	     -0.0018609	      0.0000000
     -0.1027376	     -0.0022361	      0.0000000
     -0.1024151	     -0.0026287	      0.0000000
     -0.1017220	     -0.0030361	      0.0000000
     -0.1006478	     -0.0034552	      0.0000000
     -0.0991852	     -0.0038829	      0.0000000
     -0.0973295	     -0.0043156	      0.0000000
     -0.0950795	     -0.0047494	      0.0000000
     -0.0924374	     -0.0051801	      0.0000000
     -0.0894091	     -0.0056035	      0.0000000
     -0.0860042	     -0.0060149	      0.0000000
     -0.0822362	     -0.0064099	      0.0000000
     -0.0781226	     -0.0067836	      0.0000000
     -0.0736848	     -0.0071313	      0.0000000
     -0.0689482	     -0.0074484	      0.0000000
     -0.0639422	     -0.0077303	      0.0000000
     -0.0586995	     -0.0079729	      0.0000000
     -0.0532564	     -0.0081722	      0.0000000
     -0.0476525	     -0.0083247	      0.0000000
     -0.0419298	     -0.0084276	      0.0000000
     -0.0361327	     -0.0084784	      0.0000000
     -0.0303071	     -0.0084755	      0.0000000
     -0.0245004	     -0.0084181	      0.0000000
     -0.0187602	     -0.0083061	      0.0000000
     -0.0131339	     -0.0081402	      0.0000000
     -0.0076682	     -0.0079220	      0.0000000
     -0.0024082	     -0.0076540	      0.0000000
      0.0026034	     -0.0073395	      0.0000000
      0.0073265	     -0.0069825	      0.0000000
      0.0117248	     -0.0065873	      0.0000000
      0.0157657	     -0.0061587	      0.0000000
      0.0194210	     -0.0057019	      0.0000000
      0.0226664	     -0.0052223	      0.0000000
      0.0254831	     -0.0047256	      0.0000000
      0.0278561	     -0.0042173	      0.0000000
      0.0297764	     -0.0037029	      0.0000000
      0.0312381	     -0.0031877	      0.0000000
      0.0322420	     -0.0026769	      0.0000000
      0.0327909	     -0.0021751	      0.0000000
      0.0328949	     -0.0016875	      0.0000000
      0.0325648	     -0.0012180	      0.0000000
      0.0318204	     -0.0007716	      0.0000000
      0.0306794	     -0.0003522	      0.0000000
      0.0291726	      0.0000351	      0.0000000
      0.0273240	      0.0003855	      0.0000000
      0.0251789	      0.0006905	      0.0000000
      0.0227697	      0.0009438	      0.0000000
      0.0201621	      0.0011313	      0.0000000
      0.0173988	      0.0012452	      0.0000000
      0.0145734	      0.0012623	      0.0000000
      0.0117404	      0.0011775	      0.0000000
      0.0090252	      0.0009560	      0.0000000
      0.0064873	      0.0006213	      0.0000000
      0.0042676	      0.0001417	      0.0000000
      0.0023999	     -0.0003082	      0.0000000
      0.0009849	     -0.0006460	      0.0000000
      0.0000000	      0.0000000	      0.0000000
      0.0000000	      0.0000000	      0.0000000
     -0.0013326	     -0.0021286	      0.0000000
     -0.0020188	     -0.0027295	      0.0000000
     -0.0026563	     -0.0026042	      0.0000000
     -0.0037336	     -0.0019680	      0.0000000
     -0.0051123	     -0.0011811	      0.0000000
     -0.0070144	     -0.0003212	      0.0000000
     -0.0093122	      0.0004783	      0.0000000
     -0.0120669	      0.0012057	      0.0000000
     -0.0151688	      0.0018221	      0.0000000
     -0.0186113	      0.0023406	      0.0000000
     -0.0223103	      0.0027589	      0.0000000
     -0.0262398	      0.0030960	      0.0000000
     -0.0303415	      0.0033615	      0.0000000
     -0.0345906	      0.0035724	      0.0000000
     -0.0389502	      0.0037395	      0.0000000
     -0.0434026	      0.0038751	      0.0000000
     -0.0479259	      0.0039872	      0.0000000
     -0.0525090	      0.0040831	      0.0000000
     -0.0571395	      0.0041671	      0.0000000
     -0.0618100	      0.0042424	      0.0000000
     -0.0665123	      0.0043101	      0.0000000
     -0.0712401	      0.0043704	      0.0000000
     -0.0759856	      0.0044218	      0.0000000
     -0.0807412	      0.0044627	      0.0000000
     -0.0854973	      0.0044902	      0.0000000
     -0.0902432	      0.0045014	      0.0000000
     -0.0949661	      0.0044926	      0.0000000
     -0.0996517	      0.0044605	      0.0000000
     -0.1042833	      0.0044012	      0.0000000
     -0.1088423	      0.0043112	      0.0000000
     -0.1133085	      0.0041869	      0.0000000
     -0.1176594	      0.0040251	      0.0000000
     -0.1218712	      0.0038227	      0.0000000
     -0.1259185	      0.0035769	      0.0000000
     -0.1297744	      0.0032854	      0.0000000
     -0.1334114	      0.0029461	      0.0000000
     -0.1368009	      0.0025576	      0.0000000
     -0.1399140	      0.0021189	      0.0000000
     -0.1427215	      0.0016295	      0.0000000
     -0.1451944	      0.0010895	      0.0000000
     -0.1473044	      0.0004997	      0.0000000
     -0.1490237	     -0.0001388	      0.0000000
     -0.1503258	     -0.0008242	      0.0000000
     -0.1511861	     -0.0015545	      0.0000000
     -0.1515811	     -0.0023270	      0.0000000
     -0.1514898	     -0.0031379	      0.0000000
     -0.1508938	     -0.0039824	      0.0000000
     -0.1497777	     -0.0048552	      0.0000000
     -0.1481298	     -0.0057499	      0.0000000
     -0.1459419	     -0.0066597	      0.0000000
     -0.1432100	     -0.0075773	      0.0000000
     -0.1399343	     -0.0084946	      0.0000000
     -0.1361198	     -0.0094033	      0.0000000
     -0.1317760	     -0.0102944	      0.0000000
     -0.1269173	     -0.0111590	      0.0000000
     -0.1215635	     -0.0119876	      0.0000000
     -0.1157390	     -0.0127707	      0.0000000
     -0.1094737	     -0.0134989	      0.0000000
     -0.1028023	     -0.0141628	      0.0000000
     -0.0957647	     -0.0147535	      0.0000000
     -0.0884051	     -0.0152625	      0.0000000
     -0.0807725	     -0.0156820	      0.0000000
     -0.0729196	     -0.0160050	      0.0000000
     -0.0649027	     -0.0162257	      0.0000000
     -0.0567811	     -0.0163393	      0.0000000
     -0.0486163	     -0.0163425	      0.0000000
     -0.0404714	     -0.0162335	      0.0000000
     -0.0324100	     -0.0160119	      0.0000000
     -0.0244961	     -0.0156790	      0.0000000
     -0.0167922	     -0.0152380	      0.0000000
     -0.0093593	     -0.0146933	      0.0000000
     -0.0022557	     -0.0140514	      0.0000000
      0.0044639	     -0.0133199	      0.0000000
      0.0107491	     -0.0125078	      0.0000000
      0.0165545	     -0.0116246	      0.0000000
      0.0218407	     -0.0106808	      0.0000000
      0.0265731	     -0.0096871	      0.0000000
      0.0307242	     -0.0086550	      0.0000000
      0.0342719	     -0.0075957	      0.0000000
      0.0372015	     -0.0065205	      0.0000000
      0.0395032	     -0.0054406	      0.0000000
      0.0411755	     -0.0043665	      0.0000000
      0.0422204	     -0.0033087	      0.0000000
      0.0426495	     -0.0022773	      0.0000000
      0.0424759	     -0.0012818	      0.0000000
      0.0417246	     -0.0003327	      0.0000000
      0.0404195	      0.0005609	      0.0000000
      0.0386004	      0.0013876	      0.0000000
      0.0363019	      0.0021362	      0.0000000
      0.0335829	      0.0027899	      0.0000000
      0.0304898	      0.0033341	      0.0000000
      0.0271075	      0.0037436	      0.0000000
      0.0234959	      0.0040004	      0.0000000
      0.0197742	      0.0040673	      0.0000000
      0.0160140	      0.0039305	      0.0000000
      0.0123754	      0.0035426	      0.0000000
      0.0089284	      0.0029300	      0.0000000
      0.0058724	      0.0020624	      0.0000000
      0.0032399	      0.0011305	      0.0000000
      0.0012880	      0.0002190	      0.0000000
      0.0000000	      0.0000000	      0.0000000
      0.0000000	      0.0000000	      0.0000000
     -0.0014721	     -0.0022034	      0.0000000
     -0.0025309	     -0.0026631	      0.0000000
     -0.0037863	     -0.0022386	      0.0000000
     -0.0056012	     -0.0011848	      0.0000000
     -0.0078519	      0.0000738	      0.0000000
     -0.0107059	      0.0014262	      0.0000000
     -0.0140470	      0.0026953	      0.0000000
     -0.0179136	      0.0038557	      0.0000000
     -0.0221993	      0.0048513	      0.0000000
     -0.0268839	      0.0056958	      0.0000000
     -0.0318810	      0.0063853	      0.0000000
     -0.0371544	      0.0069458	      0.0000000
     -0.0426408	      0.0073913	      0.0000000
     -0.0483073	      0.0077472	      0.0000000
     -0.0541116	      0.0080296	      0.0000000
     -0.0600297	      0.0082577	      0.0000000
     -0.0660351	      0.0084436	      0.0000000
     -0.0721114	      0.0085992	      0.0000000
     -0.0782421	      0.0087311	      0.0000000
     -0.0844155	      0.0088445	      0.0000000
     -0.0906194	      0.0089412	      0.0000000
     -0.0968435	      0.0090216	      0.0000000
     -0.1030763	      0.0090836	      0.0000000
     -0.1093056	      0.0091244	      0.0000000
     -0.1155178	      0.0091397	      0.0000000
     -0.1216975	      0.0091246	      0.0000000
     -0.1278272	      0.0090736	      0.0000000
     -0.1338872	      0.0089812	      0.0000000
     -0.1398556	      0.0088414	      0.0000000
     -0.1457080	      0.0086486	      0.0000000
     -0.1514182	      0.0083973	      0.0000000
     -0.1569578	      0.0080822	      0.0000000
     -0.1622966	      0.0076986	      0.0000000
     -0.1674027	      0.0072424	      0.0000000
     -0.1722431	      0.0067099	      0.0000000
     -0.1767838	      0.0060984	      0.0000000
     -0.1809899	      0.0054058	      0.0000000
     -0.1848266	      0.0046308	      0.0000000
     -0.1882589	      0.0037731	      0.0000000
     -0.1912523	      0.0028334	      0.0000000
     -0.1937733	      0.0018130	      0.0000000
     -0.1957897	      0.0007146	      0.0000000
     -0.1972708	     -0.0004585	      0.0000000
     -0.1981882	     -0.0017022	      0.0000000
     -0.1985161	     -0.0030119	      0.0000000
     -0.1982313	     -0.0043807	      0.0000000
     -0.1973141	     -0.0058007	      0.0000000
     -0.1957486	     -0.0072628	      0.0000000
     -0.1935232	     -0.0087567	      0.0000000
     -0.1906306	     -0.0102713	      0.0000000
     -0.1870684	     -0.0117946	      0.0000000
     -0.1828391	     -0.0133139	      0.0000000
     -0.1779506	     -0.0148156	      0.0000000
     -0.1724164	     -0.0162856	      0.0000000
     -0.1662553	     -0.0177095	      0.0000000
     -0.1594922	     -0.0190724	      0.0000000
     -0.1521576	     -0.0203593	      0.0000000
     -0.1442880	     -0.0215553	      0.0000000
     -0.1359257	     -0.0226456	      0.0000000
     -0.1271183	     -0.0236162	      0.0000000
     -0.1179193	     -0.0244537	      0.0000000
     -0.1083869	     -0.0251456	      0.0000000
     -0.0985841	     -0.0256811	      0.0000000
     -0.0885780	     -0.0260507	      0.0000000
     -0.0784391	     -0.0262469	      0.0000000
     -0.0682408	     -0.0262642	      0.0000000
     -0.0580584	     -0.0260994	      0.0000000
     -0.0479682	     -0.0257519	      0.0000000
     -0.0380465	     -0.0252235	      0.0000000
     -0.0283691	     -0.0245185	      0.0000000
     -0.0190095	     -0.0236441	      0.0000000
     -0.0100386	     -0.0226096	      0.0000000
     -0.0015234	     -0.0214269	      0.0000000
      0.0064736	     -0.0201102	      0.0000000
      0.0138961	     -0.0186747	      0.0000000
      0.0206941	     -0.0171369	      0.0000000
      0.0268244	     -0.0155142	      0.0000000
      0.0322511	     -0.0138246	      0.0000000
      0.0369453	     -0.0120864	      0.0000000
      0.0408866	     -0.0103180	      0.0000000
      0.0440610	     -0.0085373	      0.0000000
      0.0464638	     -0.0067620	      0.0000000
      0.0480957	     -0.0050093	      0.0000000
      0.0489681	     -0.0032962	      0.0000000
      0.0490955	     -0.0016391	      0.0000000
      0.0485063	     -0.0000554	      0.0000000
      0.0472283	      0.0014386	      0.0000000
      0.0453089	      0.0028236	      0.0000000
      0.0427900	      0.0040803	      0.0000000
      0.0397413	      0.0051822	      0.0000000
      0.0362193	      0.0061049	      0.0000000
      0.0323235	      0.0068108	      0.0000000
      0.0281252	      0.0072705	      0.0000000
      0.0237635	      0.0074324	      0.0000000
      0.0193194	      0.0072720	      0.0000000
      0.0149825	      0.0067290	      0.0000000
      0.0108267	      0.0058227	      0.0000000
      0.0071100	      0.0045138	      0.0000000
      0.0038684	      0.0029776	      0.0000000
      0.0014987	      0.0012791	      0.0000000
      0.0000000	      0.0000000	      0.0000000
      0.0000000	      0.0000000	      0.0000000
     -0.0016405	     -0.0018958	      0.0000000
     -0.0031053	     -0.0019710	      0.0000000
     -0.0050174	     -0.0010613	      0.0000000
     -0.0076304	      0.0005470	      0.0000000
     -0.0108226	      0.0023911	      0.0000000
     -0.0147025	      0.0043291	      0.0000000
     -0.0191562	      0.0061505	      0.0000000
     -0.0241941	      0.0078162	      0.0000000
     -0.0297108	      0.0092558	      0.0000000
     -0.0356712	      0.0104830	      0.0000000
     -0.0419873	      0.0114931	      0.0000000
     -0.0486136	      0.0123189	      0.0000000
     -0.0554837	      0.0129798	      0.0000000
     -0.0625577	      0.0135093	      0.0000000
     -0.0697898	      0.0139300	      0.0000000
     -0.0771500	      0.0142679	      0.0000000
     -0.0846082	      0.0145401	      0.0000000
     -0.0921433	      0.0147629	      0.0000000
     -0.0997347	      0.0149459	      0.0000000
     -0.1073664	      0.0150964	      0.0000000
     -0.1150224	      0.0152169	      0.0000000
     -0.1226881	      0.0153079	      0.0000000
     -0.1303475	      0.0153667	      0.0000000
     -0.1379844	      0.0153890	      0.0000000
     -0.1455804	      0.0153690	      0.0000000
     -0.1531154	      0.0152996	      0.0000000
     -0.1605670	      0.0151732	      0.0000000
     -0.1679103	      0.0149817	      0.0000000
     -0.1751182	      0.0147168	      0.0000000
     -0.1821610	      0.0143706	      0.0000000
     -0.1890069	      0.0139354	      0.0000000
     -0.1956221	      0.0134039	      0.0000000
     -0.2019709	      0.0127698	      0.0000000
     -0.2080159	      0.0120274	      0.0000000
     -0.2137191	      0.0111719	      0.0000000
     -0.2190410	      0.0101999	      0.0000000
     -0.2239423	      0.0091089	      0.0000000
     -0.2283833	      0.0078977	      0.0000000
     -0.2323250	      0.0065663	      0.0000000
     -0.2357291	      0.0051163	      0.0000000
     -0.2385588	      0.0035505	      0.0000000
     -0.2407789	      0.0018731	      0.0000000
     -0.2423567	      0.0000898	      0.0000000
     -0.2432618	     -0.0017928	      0.0000000
     -0.2434673	     -0.0037667	      0.0000000
     -0.2429499	     -0.0058219	      0.0000000
     -0.2416901	     -0.0079464	      0.0000000
     -0.2396726	     -0.0101267	      0.0000000
     -0.2368872	     -0.0123478	      0.0000000
     -0.2333281	     -0.0145938	      0.0000000
     -0.2289952	     -0.0168473	      0.0000000
     -0.2238934	     -0.0190900	      0.0000000
     -0.2180337	     -0.0213028	      0.0000000
     -0.2114327	     -0.0234656	      0.0000000
     -0.2041130	     -0.0255580	      0.0000000
     -0.1961037	     -0.0275589	      0.0000000
     -0.1874398	     -0.0294472	      0.0000000
     -0.1781629	     -0.0312016	      0.0000000
     -0.1683206	     -0.0328016	      0.0000000
     -0.1579669	     -0.0342270	      0.0000000
     -0.1471613	     -0.0354590	      0.0000000
     -0.1359694	     -0.0364799	      0.0000000
     -0.1244618	     -0.0372741	      0.0000000
     -0.1127135	     -0.0378280	      0.0000000
     -0.1008039	     -0.0381307	      0.0000000
     -0.0888155	     -0.0381743	      0.0000000
     -0.0768332	     -0.0379537	      0.0000000
     -0.0649435	     -0.0374676	      0.0000000
     -0.0532331	     -0.0367181	      0.0000000
     -0.0417882	     -0.0357110	      0.0000000
     -0.0306933	     -0.0344556	      0.0000000
     -0.0200299	     -0.0329650	      0.0000000
     -0.0098759	     -0.0312554	      0.0000000
     -0.0003037	     -0.0293462	      0.0000000
      0.0086193	     -0.0272595	      0.0000000
      0.0168342	     -0.0250191	      0.0000000
      0.0242888	     -0.0226497	      0.0000000
      0.0309400	     -0.0201773	      0.0000000
      0.0367521	     -0.0176283	      0.0000000
      0.0416991	     -0.0150295	      0.0000000
      0.0457624	     -0.0124070	      0.0000000
      0.0489345	     -0.0097870	      0.0000000
      0.0512136	     -0.0071950	      0.0000000
      0.0526107	     -0.0046562	      0.0000000
      0.0531406	     -0.0021955	      0.0000000
      0.0528337	      0.0001611	      0.0000000
      0.0517211	      0.0023882	      0.0000000
      0.0498553	      0.0044571	      0.0000000
      0.0472836	      0.0063386	      0.0000000
      0.0440839	      0.0079954	      0.0000000
      0.0403198	      0.0093909	      0.0000000
      0.0361028	      0.0104748	      0.0000000
      0.0315117	      0.0112036	      0.0000000
      0.0267023	      0.0115115	      0.0000000
      0.0217625	      0.0113592	      0.0000000
      0.0169083	      0.0106734	      0.0000000
      0.0122197	      0.0094559	      0.0000000
      0.0080059	      0.0076556	      0.0000000
      0.0043120	      0.0054022	      0.0000000
      0.0016402	      0.0027238	      0.0000000
      0.0000000	      0.0000000	      0.0000000
      0.0000000	      0.0000000	      0.0000000
     -0.0018236	     -0.0013713	      0.0000000
     -0.0037171	     -0.0008117	      0.0000000
     -0.0063175	      0.0007828	      0.0000000
     -0.0097713	      0.0030982	      0.0000000
     -0.0139539	      0.0056391	      0.0000000
     -0.0189088	      0.0082443	      0.0000000
     -0.0245210	      0.0106806	      0.0000000