# vtk DataFile Version 2.0
vw
ASCII
DATASET STRUCTURED_POINTS
DIMENSIONS  102  102    1
ORIGIN      0.0000000      0.0000000      0.0000000
SPACING      0.0100000      0.0100000      0.0100000
POINT_DATA  10404
VECTORS velocity float
      0.0000000	      0.0000000	      0.0000000
      0.0000000	      0.0000000	      0.0000000
      0.0000000	      0.0000000	      0.0000000
      0.0000000	      0.0000000	      0.0000000
      0.0000000	      0.0000000	      0.0000000
      0.0000000	      0.0000000	      0.0000000
      0.0000000	      0.0000000	      0.0000000
      0.0000000	      0.0000000	      0.0000000
      0.0000000	      0.0000000	      0.0000000
      0.0000000	      0.0000000	      0.0000000
      0.0000000	      0.0000000	      0.0000000
      0.0000000	      0.0000000	      0.0000000
      0.0000000	      0.0000000	      0.0000000
      0.0000000	      0.0000000	      0.0000000
      0.0000000	      0.0000000	      0.0000000
      0.0000000	      0.0000000	      0.0000000
      0.0000000	      0.0000000	      0.0000000
      0.0000000	      0.0000000	      0.0000000
      0.0000000	      0.0000000	      0.0000000
      0.0000000	      0.0000000	      0.0000000
      0.0000000	      0.0000000	      0.0000000
      0.0000000	      0.0000000	      0.0000000
      0.0000000	      0.0000000	      0.0000000
      0.0000000	      0.0000000	      0.0000000
      0.0000000	      0.0000000	      0.0000000
      0.0000000	      0.0000000	      0.0000000
      0.0000000	      0.0000000	      0.0000000
      0.0000000	      0.0000000	      0.0000000
      0.0000000	      0.0000000	      0.0000000
      0.0000000	      0.0000000	      0.0000000
      0.0000000	      0.0000000	      0.0000000
      0.0000000	      0.0000000	      0.0000000
      0.0000000	      0.0000000	      0.0000000
      0.0000000	      0.0000000	      0.0000000
      0.0000000	      0.0000000	      0.0000000
      0.0000000	      0.0000000	      0.0000000
      0.0000000	      0.0000000	      0.0000000
      0.0000000	      0.0000000	      0.0000000
      0.0000000	      0.0000000	      0.0000000
      0.0000000	      0.0000000	      0.0000000
      0.0000000	      0.0000000	      0.0000000
      0.0000000	      0.0000000	      0.0000000
      0.0000000	      0.0000000	      0.0000000
      0.0000000	      0.0000000	      0.0000000
      0.0000000	      0.0000000	      0.0000000
      0.0000000	      0.0000000	      0.0000000
      0.0000000	      0.0000000	      0.0000000
      0.0000000	      0.0000000	      0.0000000
      0.0000000	      0.0000000	      0.0000000
      0.0000000	      0.0000000	      0.0000000
      0.0000000	      0.0000000	      0.0000000
      0.0000000	      0.0000000	      0.0000000
      0.0000000	      0.0000000	      0.0000000
      0.0000000	      0.0000000	      0.0000000
      0.0000000	      0.0000000	      0.0000000
      0.0000000	      0.0000000	      0.0000000
      0.0000000	      0.0000000	      0.0000000
      0.0000000	      0.0000000	      0.0000000
      0.0000000	      0.0000000	      0.0000000
      0.0000000	      0.0000000	      0.0000000
      0.0000000	      0.0000000	      0.0000000
      0.0000000	      0.0000000	      0.0000000
      0.0000000	      0.0000000	      0.0000000
      0.0000000	      0.0000000	      0.0000000
      0.0000000	      0.0000000	      0.0000000
      0.0000000	      0.0000000	      0.0000000
      0.0000000	      0.0000000	      0.0000000
      0.0000000	      0.0000000	      0.0000000
      0.0000000	      0.0000000	      0.0000000
      0.0000000	      0.0000000	      0.0000000
      0.0000000	      0.0000000	      0.0000000
      0.0000000	      0.0000000	      0.0000000
      0.0000000	      0.0000000	      0.0000000
      0.0000000	      0.0000000	      0.0000000
      0.0000000	      0.0000000	      0.0000000
      0.0000000	      0.0000000	      0.0000000
      0.0000000	      0.0000000	      0.0000000
      0.0000000	      0.0000000	      0.0000000
      0.0000000	      0.0000000	      0.0000000
      0.0000000	      0.0000000	      0.0000000
      0.0000000	      0.0000000	      0.0000000
      0.0000000	      0.0000000	      0.0000000
      0.0000000	      0.0000000	      0.0000000
      0.0000000	      0.0000000	      0.0000000
      0.0000000	      0.0000000	      0.0000000
      0.0000000	      0.0000000	      0.0000000
      0.0000000	      0.0000000	      0.0000000
      0.0000000	      0.0000000	      0.0000000
      0.0000000	      0.0000000	      0.0000000
      0.0000000	      0.0000000	      0.0000000
      0.0000000	      0.0000000	      0.0000000
      0.0000000	      0.0000000	      0.0000000
      0.0000000	      0.0000000	      0.0000000
      0.0000000	      0.0000000	      0.0000000
      0.0000000	      0.0000000	      0.0000000
      0.0000000	      0.0000000	      0.0000000
      0.0000000	      0.0000000	      0.0000000
      0.0000000	      0.0000000	      0.0000000
      0.0000000	      0.0000000	      0.0000000
      0.0000000	      0.0000000	      0.0000000
      0.0000000	      0.0000000	      0.0000000
      0.0000000	      0.0000000	      0.0000000
      0.0000000	      0.0000000	      0.0000000
     -0.0009874	     -0.0010910	      0.0000000
     -0.0013581	     -0.0012552	      0.0000000
     -0.0015009	     -0.0012201	      0.0000000
     -0.0018783	     -0.0011122	      0.0000000
     -0.0023371	     -0.0010034	      0.0000000
     -0.0029612	     -0.0009086	      0.0000000
     -0.0036926	     -0.0008319	      0.0000000
     -0.0045319	     -0.0007726	      0.0000000
     -0.0054493	     -0.0007282	      0.0000000
     -0.0064315	     -0.0006966	      0.0000000
     -0.0074604	     -0.0006753	      0.0000000
     -0.0085239	     -0.0006624	      0.0000000
     -0.0096105	     -0.0006563	      0.0000000
     -0.0107119	     -0.0006555	      0.0000000
     -0.0118213	     -0.0006588	      0.0000000
     -0.0129338	     -0.0006652	      0.0000000
     -0.0140453	     -0.0006741	      0.0000000
     -0.0151532	     -0.0006849	      0.0000000
     -0.0162554	     -0.0006972	      0.0000000
     -0.0173504	     -0.0007108	      0.0000000
     -0.0184371	     -0.0007255	      0.0000000
     -0.0195146	     -0.0007412	      0.0000000
     -0.0205819	     -0.0007579	      0.0000000
     -0.0216385	     -0.0007757	      0.0000000
     -0.0226835	     -0.0007944	      0.0000000
     -0.0237161	     -0.0008143	      0.0000000
     -0.0247355	     -0.0008352	      0.0000000
     -0.0257408	     -0.0008574	      0.0000000
     -0.0267310	     -0.0008808	      0.0000000
     -0.0277051	     -0.0009054	      0.0000000
     -0.0286618	     -0.0009314	      0.0000000
     -0.0295999	     -0.0009588	      0.0000000
     -0.0305182	     -0.0009876	      0.0000000
     -0.0314153	     -0.0010178	      0.0000000
     -0.0322897	     -0.0010496	      0.0000000
     -0.0331398	     -0.0010829	      0.0000000
     -0.0339643	     -0.0011178	      0.0000000
     -0.0347613	     -0.0011543	      0.0000000
     -0.0355291	     -0.0011924	      0.0000000
     -0.0362662	     -0.0012321	      0.0000000
     -0.0369705	     -0.0012735	      0.0000000
     -0.0376403	     -0.0013166	      0.0000000
     -0.0382738	     -0.0013613	      0.0000000
     -0.0388690	     -0.0014076	      0.0000000
     -0.0394241	     -0.0014555	      0.0000000
     -0.0399372	     -0.0015051	      0.0000000
     -0.0404062	     -0.0015563	      0.0000000
     -0.0408292	     -0.0016092	      0.0000000
     -0.0412042	     -0.0016636	      0.0000000
     -0.0415292	     -0.0017195	      0.0000000
     -0.0418023	     -0.0017770	      0.0000000
     -0.0420214	     -0.0018359	      0.0000000
     -0.0421847	     -0.0018961	      0.0000000
     -0.0422904	     -0.0019576	      0.0000000
     -0.0423368	     -0.0020202	      0.0000000
     -0.0423220	     -0.0020839	      0.0000000
     -0.0422448	     -0.0021486	      0.0000000
     -0.0421036	     -0.0022140	      0.0000000
     -0.0418971	     -0.0022800	      0.0000000
     -0.0416243	     -0.0023465	      0.0000000
     -0.0412842	     -0.0024133	      0.0000000
     -0.0408761	     -0.0024803	      0.0000000
     -0.0403994	     -0.0025472	      0.0000000
     -0.0398536	     -0.0026138	      0.0000000
     -0.0392388	     -0.0026800	      0.0000000
     -0.0385548	     -0.0027456	      0.0000000
     -0.0378021	     -0.0028103	      0.0000000
     -0.0369811	     -0.0028740	      0.0000000
     -0.0360926	     -0.0029363	      0.0000000
     -0.0351377	     -0.0029972	      0.0000000
     -0.0341177	     -0.0030565	      0.0000000
     -0.0330339	     -0.0031138	      0.0000000
     -0.0318882	     -0.0031690	      0.0000000
     -0.0306826	     -0.0032219	      0.0000000
     -0.0294193	     -0.0032724	      0.0000000
     -0.0281008	     -0.0033201	      0.0000000
     -0.0267299	     -0.0033650	      0.0000000
     -0.0253096	     -0.0034068	      0.0000000
     -0.0238433	     -0.0034453	      0.0000000
     -0.0223347	     -0.0034802	      0.0000000
     -0.0207879	     -0.0035112	      0.0000000
     -0.0192077	     -0.0035381	      0.0000000
     -0.0175993	     -0.0035603	      0.0000000
     -0.0159689	     -0.0035774	      0.0000000
     -0.0143235	     -0.0035887	      0.0000000
     -0.0126713	     -0.0035934	      0.0000000
     -0.0110219	     -0.0035908	      0.0000000
     -0.0093867	     -0.0035796	      0.0000000
     -0.0077789	     -0.0035586	      0.0000000
     -0.0062141	     -0.0035265	      0.0000000
     -0.0047102	     -0.0034817	      0.0000000
     -0.0032887	     -0.0034224	      0.0000000
     -0.0019724	     -0.0033471	      0.0000000
     -0.0007906	     -0.0032540	      0.0000000
      0.0002296	     -0.0031414	      0.0000000
      0.0010463	     -0.0030063	      0.0000000
      0.0016331	     -0.0028409	      0.0000000
      0.0019089	     -0.0026272	      0.0000000
      0.0018641	     -0.0022890	      0.0000000
      0.0012252	     -0.0016768	      0.0000000
      0.0000000	      0.0000000	      0.0000000
      0.0000000	      0.0000000	      0.0000000
     -0.0012909	     -0.0013960	      0.0000000
     -0.0020395	     -0.0016333	      0.0000000
     -0.0026491	     -0.0015313	      0.0000000
     -0.0035202	     -0.0012774	      0.0000000
     -0.0045255	     -0.0010025	      0.0000000
     -0.0057623	     -0.0007454	      0.0000000
     -0.0071729	     -0.0005249	      0.0000000
     -0.0087565	     -0.0003448	      0.0000000
     -0.0104745	     -0.0002034	      0.0000000
     -0.0123052	     -0.0000969	      0.0000000
     -0.0142205	     -0.0000205	      0.0000000
     -0.0161996	      0.0000308	      0.0000000
     -0.0182230	      0.0000617	      0.0000000
     -0.0202757	      0.0000761	      0.0000000
     -0.0223452	      0.0000777	      0.0000000
     -0.0244220	      0.0000694	      0.0000000
     -0.0264986	      0.0000535	      0.0000000
     -0.0285694	      0.0000317	      0.0000000
     -0.0306302	      0.0000053	      0.0000000
     -0.0326778	     -0.0000247	      0.0000000
     -0.0347095	     -0.0000579	      0.0000000
     -0.0367234	     -0.0000938	      0.0000000
     -0.0387177	     -0.0001322	      0.0000000
     -0.0406907	     -0.0001732	      0.0000000
     -0.0426409	     -0.0002167	      0.0000000
     -0.0445666	     -0.0002629	      0.0000000
     -0.0464662	     -0.0003119	      0.0000000
     -0.0483379	     -0.0003638	      0.0000000
     -0.0501798	     -0.0004188	      0.0000000
     -0.0519898	     -0.0004770	      0.0000000
     -0.0537660	     -0.0005386	      0.0000000
     -0.0555058	     -0.0006037	      0.0000000
     -0.0572071	     -0.0006724	      0.0000000
     -0.0588673	     -0.0007450	      0.0000000
     -0.0604836	     -0.0008215	      0.0000000
     -0.0620535	     -0.0009021	      0.0000000
     -0.0635739	     -0.0009868	      0.0000000
     -0.0650419	     -0.0010758	      0.0000000
     -0.0664545	     -0.0011691	      0.0000000
     -0.0678084	     -0.0012669	      0.0000000
     -0.0691005	     -0.0013692	      0.0000000
     -0.0703274	     -0.0014760	      0.0000000
     -0.0714859	     -0.0015872	      0.0000000
     -0.0725725	     -0.0017031	      0.0000000
     -0.0735839	     -0.0018235	      0.0000000
     -0.0745166	     -0.0019484	      0.0000000
     -0.0753672	     -0.0020778	      0.0000000
     -0.0761321	     -0.0022119	      0.0000000
     -0.0768079	     -0.0023504	      0.0000000
     -0.0773911	     -0.0024933	      0.0000000
     -0.0778781	     -0.0026406	      0.0000000
     -0.0782657	     -0.0027921	      0.0000000
     -0.0785505	     -0.0029476	      0.0000000
     -0.0787293	     -0.0031068	      0.0000000
     -0.0787991	     -0.0032695	      0.0000000
     -0.0787571	     -0.0034355	      0.0000000
     -0.0786005	     -0.0036043	      0.0000000
     -0.0783270	     -0.0037757	      0.0000000
     -0.0779345	     -0.0039492	      0.0000000
     -0.0774209	     -0.0041245	      0.0000000
     -0.0767847	     -0.0043011	      0.0000000
     -0.0760246	     -0.0044786	      0.0000000
     -0.0751397	     -0.0046563	      0.0000000
     -0.0741292	     -0.0048340	      0.0000000
     -0.0729931	     -0.0050109	      0.0000000
     -0.0717315	     -0.0051866	      0.0000000
     -0.0703449	     -0.0053605	      0.0000000
     -0.0688343	     -0.0055320	      0.0000000
     -0.0672011	     -0.0057006	      0.0000000
     -0.0654472	     -0.0058656	      0.0000000
     -0.0635748	     -0.0060265	      0.0000000
     -0.0615866	     -0.0061828	      0.0000000
     -0.0594856	     -0.0063338	      0.0000000
     -0.0572756	     -0.0064790	      0.0000000
     -0.0549605	     -0.0066179	      0.0000000
     -0.0525447	     -0.0067497	      0.0000000
     -0.0500333	     -0.0068741	      0.0000000
     -0.0474317	     -0.0069901	      0.0000000
     -0.0447461	     -0.0070973	      0.0000000
     -0.0419833	     -0.0071946	      0.0000000
     -0.0391508	     -0.0072812	      0.0000000
     -0.0362575	     -0.0073558	      0.0000000
     -0.0333130	     -0.0074170	      0.0000000
     -0.0303287	     -0.0074631	      0.0000000
     -0.0273178	     -0.0074919	      0.0000000
     -0.0242955	     -0.0075009	      0.0000000
     -0.0212797	     -0.0074869	      0.0000000
     -0.0182914	     -0.0074465	      0.0000000
     -0.0153551	     -0.0073753	      0.0000000
     -0.0124997	     -0.0072687	      0.0000000
     -0.0097580	     -0.0071214	      0.0000000
     -0.0071691	     -0.0069276	      0.0000000
     -0.0047757	     -0.0066812	      0.0000000
     -0.0026301	     -0.0063756	      0.0000000
     -0.0007846	     -0.0060035	      0.0000000
      0.0006895	     -0.0055553	      0.0000000
      0.0017346	     -0.0050141	      0.0000000
      0.0022447	     -0.0043493	      0.0000000
      0.0021804	     -0.0034694	      0.0000000
      0.0013934	     -0.0022278	      0.0000000
      0.0000000	      0.0000000	      0.0000000
      0.0000000	      0.0000000	      0.0000000
     -0.0014517	     -0.0012048	      0.0000000
     -0.0025117	     -0.0013969	      0.0000000
     -0.0035667	     -0.0011632	      0.0000000
     -0.0049287	     -0.0007131	      0.0000000
     -0.0064784	     -0.0002144	      0.0000000
     -0.0083027	      0.0002675	      0.0000000
     -0.0103464	      0.0006936	      0.0000000
     -0.0126056	      0.0010520	      0.0000000
     -0.0150382	      0.0013404	      0.0000000
     -0.0176175	      0.0015635	      0.0000000
     -0.0203096	      0.0017284	      0.0000000
     -0.0230878	      0.0018437	      0.0000000
     -0.0259272	      0.0019177	      0.0000000
     -0.0288078	      0.0019583	      0.0000000
     -0.0317127	      0.0019723	      0.0000000
     -0.0346287	      0.0019655	      0.0000000
     -0.0375454	      0.0019428	      0.0000000
     -0.0404545	      0.0019076	      0.0000000
     -0.0433498	      0.0018628	      0.0000000
     -0.0462265	      0.0018103	      0.0000000
     -0.0490805	      0.0017515	      0.0000000
     -0.0519086	      0.0016871	      0.0000000
     -0.0547081	      0.0016177	      0.0000000
     -0.0574764	      0.0015433	      0.0000000
     -0.0602112	      0.0014640	      0.0000000
     -0.0629098	      0.0013797	      0.0000000
     -0.0655699	      0.0012902	      0.0000000
     -0.0681890	      0.0011951	      0.0000000
     -0.0707642	      0.0010943	      0.0000000
     -0.0732928	      0.0009873	      0.0000000
     -0.0757717	      0.0008740	      0.0000000
     -0.0781977	      0.0007539	      0.0000000
     -0.0805676	      0.0006269	      0.0000000
     -0.0828779	      0.0004927	      0.0000000
     -0.0851249	      0.0003509	      0.0000000
     -0.0873048	      0.0002013	      0.0000000
     -0.0894137	      0.0000437	      0.0000000
     -0.0914475	     -0.0001221	      0.0000000
     -0.0934020	     -0.0002963	      0.0000000
     -0.0952729	     -0.0004791	      0.0000000
     -0.0970559	     -0.0006706	      0.0000000
     -0.0987464	     -0.0008708	      0.0000000
     -0.1003400	     -0.0010799	      0.0000000
     -0.1018320	     -0.0012978	      0.0000000
     -0.1032178	     -0.0015246	      0.0000000
     -0.1044930	     -0.0017604	      0.0000000
     -0.1056527	     -0.0020050	      0.0000000
     -0.1066925	     -0.0022586	      0.0000000
     -0.1076076	     -0.0025211	      0.0000000
     -0.1083935	     -0.0027923	      0.0000000
     -0.1090454	     -0.0030721	      0.0000000
     -0.1095589	     -0.0033602	      0.0000000
     -0.1099298	     -0.0036562	      0.0000000
     -0.1101538	     -0.0039598	      0.0000000
     -0.1102269	     -0.0042704	      0.0000000
     -0.1101454	     -0.0045875	      0.0000000
     -0.1099060	     -0.0049105	      0.0000000
     -0.1095053	     -0.0052388	      0.0000000
     -0.1089407	     -0.0055715	      0.0000000
     -0.1082096	     -0.0059080	      0.0000000
     -0.1073101	     -0.0062474	      0.0000000
     -0.1062404	     -0.0065888	      0.0000000
     -0.1049994	     -0.0069313	      0.0000000
     -0.1035864	     -0.0072739	      0.0000000
     -0.1020012	     -0.0076156	      0.0000000
     -0.1002441	     -0.0079552	      0.0000000
     -0.0983159	     -0.0082918	      0.0000000
     -0.0962180	     -0.0086243	      0.0000000
     -0.0939524	     -0.0089514	      0.0000000
     -0.0915215	     -0.0092722	      0.0000000
     -0.0889286	     -0.0095854	      0.0000000
     -0.0861772	     -0.0098901	      0.0000000
     -0.0832716	     -0.0101849	      0.0000000
     -0.0802167	     -0.0104689	      0.0000000
     -0.0770180	     -0.0107409	      0.0000000
     -0.0736815	     -0.0109996	      0.0000000
     -0.0702141	     -0.0112439	      0.0000000
     -0.0666233	     -0.0114723	      0.0000000
     -0.0629175	     -0.0116832	      0.0000000
     -0.0591062	     -0.0118750	      0.0000000
     -0.0551999	     -0.0120455	      0.0000000
     -0.0512106	     -0.0121921	      0.0000000
     -0.0471519	     -0.0123118	      0.0000000
     -0.0430396	     -0.0124007	      0.0000000
     -0.0388918	     -0.0124543	      0.0000000
     -0.0347299	     -0.0124672	      0.0000000
     -0.0305785	     -0.0124327	      0.0000000
     -0.0264667	     -0.0123433	      0.0000000
     -0.0224281	     -0.0121902	      0.0000000
     -0.0185020	     -0.0119633	      0.0000000
     -0.0147335	     -0.0116516	      0.0000000
     -0.0111752	     -0.0112429	      0.0000000
     -0.0078851	     -0.0107243	      0.0000000
     -0.0049320	     -0.0100817	      0.0000000
     -0.0023860	     -0.0093002	      0.0000000
     -0.0003355	     -0.0083620	      0.0000000
      0.0011458	     -0.0072443	      0.0000000
      0.0019480	     -0.0059132	      0.0000000
      0.0020356	     -0.0043110	      0.0000000
      0.0013276	     -0.0023657	      0.0000000
      0.0000000	      0.0000000	      0.0000000
      0.0000000	      0.0000000	      0.0000000
     -0.0015554	     -0.0009444	      0.0000000
     -0.0028708	     -0.0009287	      0.0000000
     -0.0043232	     -0.0004636	      0.0000000
     -0.0061449	      0.0002389	      0.0000000
     -0.0082082	      0.0010008	      0.0000000
     -0.0105804	      0.0017391	      0.0000000
     -0.0132048	      0.0024006	      0.0000000
     -0.0160733	      0.0029652	      0.0000000
     -0.0191418	      0.0034266	      0.0000000
     -0.0223804	      0.0037890	      0.0000000
     -0.0257517	      0.0040616	      0.0000000
     -0.0292256	      0.0042560	      0.0000000
     -0.0327734	      0.0043845	      0.0000000
     -0.0363715	      0.0044589	      0.0000000
     -0.0399998	      0.0044897	      0.0000000
     -0.0436424	      0.0044862	      0.0000000
     -0.0472860	      0.0044557	      0.0000000
     -0.0509206	      0.0044043	      0.0000000
     -0.0545380	      0.0043364	      0.0000000
     -0.0581317	      0.0042553	      0.0000000
     -0.0616965	      0.0041633	      0.0000000
     -0.0652280	      0.0040619	      0.0000000
     -0.0687224	      0.0039519	      0.0000000
     -0.0721764	      0.0038338	      0.0000000
     -0.0755866	      0.0037075	      0.0000000
     -0.0789499	      0.0035731	      0.0000000
     -0.0822629	      0.0034301	      0.0000000
     -0.0855224	      0.0032782	      0.0000000
     -0.0887250	      0.0031171	      0.0000000
     -0.0918670	      0.0029462	      0.0000000
     -0.0949446	      0.0027651	      0.0000000
     -0.0979540	      0.0025733	      0.0000000
     -0.1008910	      0.0023703	      0.0000000
     -0.1037514	      0.0021558	      0.0000000
     -0.1065306	      0.0019293	      0.0000000
     -0.1092241	      0.0016904	      0.0000000
     -0.1118271	      0.0014386	      0.0000000
     -0.1143346	      0.0011737	      0.0000000
     -0.1167415	      0.0008954	      0.0000000
     -0.1190427	      0.0006033	      0.0000000
     -0.1212327	      0.0002974	      0.0000000
     -0.1233061	     -0.0000227	      0.0000000
     -0.1252573	     -0.0003569	      0.0000000
     -0.1270808	     -0.0007053	      0.0000000
     -0.1287711	     -0.0010678	      0.0000000
     -0.1303226	     -0.0014446	      0.0000000
     -0.1317298	     -0.0018356	      0.0000000
     -0.1329873	     -0.0022409	      0.0000000
     -0.1340895	     -0.0026603	      0.0000000
     -0.1350309	     -0.0030937	      0.0000000
     -0.1358061	     -0.0035408	      0.0000000
     -0.1364098	     -0.0040011	      0.0000000
     -0.1368370	     -0.0044741	      0.0000000
     -0.1370826	     -0.0049591	      0.0000000
     -0.1371422	     -0.0054554	      0.0000000
     -0.1370114	     -0.0059621	      0.0000000
     -0.1366861	     -0.0064782	      0.0000000
     -0.1361627	     -0.0070028	      0.0000000
     -0.1354380	     -0.0075347	      0.0000000
     -0.1345092	     -0.0080726	      0.0000000
     -0.1333739	     -0.0086153	      0.0000000
     -0.1320304	     -0.0091612	      0.0000000
     -0.1304773	     -0.0097091	      0.0000000
     -0.1287139	     -0.0102572	      0.0000000
     -0.1267402	     -0.0108040	      0.0000000
     -0.1245565	     -0.0113478	      0.0000000
     -0.1221641	     -0.0118869	      0.0000000
     -0.1195648	     -0.0124196	      0.0000000
     -0.1167610	     -0.0129440	      0.0000000
     -0.1137558	     -0.0134585	      0.0000000
     -0.1105531	     -0.0139613	      0.0000000
     -0.1071573	     -0.0144504	      0.0000000
     -0.1035739	     -0.0149243	      0.0000000
     -0.0998086	     -0.0153809	      0.0000000
     -0.0958683	     -0.0158184	      0.0000000
     -0.0917604	     -0.0162350	      0.0000000
     -0.0874933	     -0.0166284	      0.0000000
     -0.0830763	     -0.0169964	      0.0000000
     -0.0785197	     -0.0173363	      0.0000000
     -0.0738352	     -0.0176453	      0.0000000
     -0.0690358	     -0.0179196	      0.0000000
     -0.0641364	     -0.0181550	      0.0000000
     -0.0591537	     -0.0183463	      0.0000000
     -0.0541073	     -0.0184871	      0.0000000
     -0.0490196	     -0.0185699	      0.0000000
     -0.0439166	     -0.0185855	      0.0000000
     -0.0388288	     -0.0185232	      0.0000000
     -0.0337914	     -0.0183703	      0.0000000
     -0.0288453	     -0.0181125	      0.0000000
     -0.0240382	     -0.0177335	      0.0000000
     -0.0194242	     -0.0172153	      0.0000000
     -0.0150658	     -0.0165383	      0.0000000
     -0.0110318	     -0.0156821	      0.0000000
     -0.0074022	     -0.0146249	      0.0000000
     -0.0042577	     -0.0133454	      0.0000000
     -0.0016957	     -0.0118208	      0.0000000
      0.0002057	     -0.0100305	      0.0000000
      0.0013391	     -0.0079509	      0.0000000
      0.0016860	     -0.0055716	      0.0000000
      0.0011755	     -0.0028860	      0.0000000
      0.0000000	      0.0000000	      0.0000000
      0.0000000	      0.0000000	      0.0000000
     -0.0016392	     -0.0004643	      0.0000000
     -0.0031682	     -0.0000940	      0.0000000
     -0.0049616	      0.0006996	      0.0000000
     -0.0071911	      0.0017186	      0.0000000
     -0.0097173	      0.0027887	      0.0000000
     -0.0125853	      0.0038176	      0.0000000
     -0.0157334	      0.0047434	      0.0000000
     -0.0191468	      0.0055395	      0.0000000
     -0.0227793	      0.0061961	      0.0000000
     -0.0265977	      0.0067171	      0.0000000
     -0.0305627	      0.0071135	      0.0000000
     -0.0346415	      0.0074000	      0.0000000
     -0.0388029	      0.0075929	      0.0000000
     -0.0430210	      0.0077079	      0.0000000
     -0.0472733	      0.0077597	      0.0000000
     -0.0515417	      0.0077610	      0.0000000
     -0.0558111	      0.0077225	      0.0000000
     -0.0600697	      0.0076525	      0.0000000
     -0.0643077	      0.0075576	      0.0000000
     -0.0685174	      0.0074428	      0.0000000
     -0.0726924	      0.0073113	      0.0000000
     -0.0768273	      0.0071654	      0.0000000
     -0.0809174	      0.0070066	      0.0000000
     -0.0849584	      0.0068355	      0.0000000
     -0.0889462	      0.0066523	      0.0000000
     -0.0928770	      0.0064570	      0.0000000
     -0.0967468	      0.0062493	      0.0000000
     -0.1005516	      0.0060285	      0.0000000
     -0.1042874	      0.0057943	      0.0000000
     -0.1079498	      0.0055460	      0.0000000
     -0.1115344	      0.0052829	      0.0000000
     -0.1150367	      0.0050044	      0.0000000
     -0.1184518	      0.0047099	      0.0000000
     -0.1217748	      0.0043987	      0.0000000
     -0.1250006	      0.0040703	      0.0000000
     -0.1281239	      0.0037241	      0.0000000
     -0.1311392	      0.0033596	      0.0000000
     -0.1340408	      0.0029761	      0.0000000
     -0.1368229	      0.0025734	      0.0000000
     -0.1394796	      0.0021509	      0.0000000
     -0.1420049	      0.0017085	      0.0000000
     -0.1443925	      0.0012457	      0.0000000
     -0.1466361	      0.0007624	      0.0000000
     -0.1487294	      0.0002588	      0.0000000
     -0.1506658	     -0.0002653	      0.0000000
     -0.1524390	     -0.0008097	      0.0000000
     -0.1540430	     -0.0013744	      0.0000000
     -0.1554714	     -0.0019595	      0.0000000
     -0.1567183	     -0.0025647	      0.0000000
     -0.1577774	     -0.0031899	      0.0000000
     -0.1586428	     -0.0038346	      0.0000000
     -0.1593086	     -0.0044982	      0.0000000
     -0.1597691	     -0.0051798	      0.0000000
     -0.1600190	     -0.0058786	      0.0000000
     -0.1600532	     -0.0065934	      0.0000000
     -0.1598669	     -0.0073231	      0.0000000
     -0.1594558	     -0.0080662	      0.0000000
     -0.1588158	     -0.0088214	      0.0000000
     -0.1579434	     -0.0095870	      0.0000000
     -0.1568356	     -0.0103612	      0.0000000
     -0.1554900	     -0.0111421	      0.0000000
     -0.1539046	     -0.0119278	      0.0000000
     -0.1520782	     -0.0127161	      0.0000000
     -0.1500101	     -0.0135049	      0.0000000
     -0.1477004	     -0.0142918	      0.0000000
     -0.1451496	     -0.0150745	      0.0000000
     -0.1423594	     -0.0158506	      0.0000000
     -0.1393319	     -0.0166174	      0.0000000
     -0.1360700	     -0.0173727	      0.0000000
     -0.1325774	     -0.0181137	      0.0000000
     -0.1288587	     -0.0188379	      0.0000000
     -0.1249190	     -0.0195428	      0.0000000
     -0.1207647	     -0.0202257	      0.0000000
     -0.1164024	     -0.0208840	      0.0000000
     -0.1118401	     -0.0215150	      0.0000000
     -0.1070865	     -0.0221158	      0.0000000
     -0.1021512	     -0.0226833	      0.0000000
     -0.0970452	     -0.0232140	      0.0000000
     -0.0917803	     -0.0237042	      0.0000000
     -0.0863701	     -0.0241493	      0.0000000
     -0.0808298	     -0.0245439	      0.0000000
     -0.0751765	     -0.0248818	      0.0000000
     -0.0694299	     -0.0251551	      0.0000000
     -0.0636123	     -0.0253546	      0.0000000
     -0.0577497	     -0.0254690	      0.0000000
     -0.0518721	     -0.0254851	      0.0000000
     -0.0460141	     -0.0253871	      0.0000000
     -0.0402161	     -0.0251568	      0.0000000
     -0.0345243	     -0.0247733	      0.0000000
     -0.0289924	     -0.0242134	      0.0000000
     -0.0236811	     -0.0234515	      0.0000000
     -0.0186598	     -0.0224602	      0.0000000
     -0.0140041	     -0.0212109	      0.0000000
     -0.0098010	     -0.0196749	      0.0000000
     -0.0061367	     -0.0178254	      0.0000000
     -0.0031133	     -0.0156377	      0.0000000
     -0.0008085	     -0.0130975	      0.0000000
      0.0006691	     -0.0101978	      0.0000000
      0.0013117	     -0.0069741	      0.0000000
      0.0010247	     -0.0034860	      0.0000000
      0.0000000	      0.0000000	      0.0000000
      0.0000000	      0.0000000	      0.0000000
     -0.0017128	      0.0001189	      0.0000000
     -0.0034223	      0.0009622	      0.0000000
     -0.0055057	      0.0021739	      0.0000000
     -0.0080904	      0.0035719	      0.0000000
     -0.0110247	      0.0049920	      0.0000000
     -0.0143325	      0.0063401	      0.0000000
     -0.0179451	      0.0075511	      0.0000000