# vtk DataFile Version 2.0
vw
ASCII
DATASET STRUCTURED_POINTS
DIMENSIONS  102  102    1
ORIGIN      0.0000000      0.0000000      0.0000000
SPACING      0.0100000      0.0100000      0.0100000
POINT_DATA  10404
VECTORS velocity float
      0.0000000	      0.0000000	      0.0000000
      0.0000000	      0.0000000	      0.0000000
      0.0000000	      0.0000000	      0.0000000
      0.0000000	      0.0000000	      0.0000000
      0.0000000	      0.0000000	      0.0000000
      0.0000000	      0.0000000	      0.0000000
      0.0000000	      0.0000000	      0.0000000
      0.0000000	      0.0000000	      0.0000000
      0.0000000	      0.0000000	      0.0000000
      0.0000000	      0.0000000	      0.0000000
      0.0000000	      0.0000000	      0.0000000
      0.0000000	      0.0000000	      0.0000000
      0.0000000	      0.0000000	      0.0000000
      0.0000000	      0.0000000	      0.0000000
      0.0000000	      0.0000000	      0.0000000
      0.0000000	      0.0000000	      0.0000000
      0.0000000	      0.0000000	      0.0000000
      0.0000000	      0.0000000	      0.0000000
      0.0000000	      0.0000000	      0.0000000
      0.0000000	      0.0000000	      0.0000000
      0.0000000	      0.0000000	      0.0000000
      0.0000000	      0.0000000	      0.0000000
      0.0000000	      0.0000000	      0.0000000
      0.0000000	      0.0000000	      0.0000000
      0.0000000	      0.0000000	      0.0000000
      0.0000000	      0.0000000	      0.0000000
      0.0000000	      0.0000000	      0.0000000
      0.0000000	      0.0000000	      0.0000000
      0.0000000	      0.0000000	      0.0000000
      0.0000000	      0.0000000	      0.0000000
      0.0000000	      0.0000000	      0.0000000
      0.0000000	      0.0000000	      0.0000000
      0.0000000	      0.0000000	      0.0000000
      0.0000000	      0.0000000	      0.0000000
      0.0000000	      0.0000000	      0.0000000
      0.0000000	      0.0000000	      0.0000000
      0.0000000	      0.0000000	      0.0000000
      0.0000000	      0.0000000	      0.0000000
      0.0000000	      0.0000000	      0.0000000
      0.0000000	      0.0000000	      0.0000000
      0.0000000	      0.0000000	      0.0000000
      0.0000000	      0.0000000	      0.0000000
      0.0000000	      0.0000000	      0.0000000
      0.0000000	      0.0000000	      0.0000000
      0.0000000	      0.0000000	      0.0000000
      0.0000000	      0.0000000	      0.0000000
      0.0000000	      0.0000000	      0.0000000
      0.0000000	      0.0000000	      0.0000000
      0.0000000	      0.0000000	      0.0000000
      0.0000000	      0.0000000	      0.0000000
      0.0000000	      0.0000000	      0.0000000
      0.0000000	      0.0000000	      0.0000000
      0.0000000	      0.0000000	      0.0000000
      0.0000000	      0.0000000	      0.0000000
      0.0000000	      0.0000000	      0.0000000
      0.0000000	      0.0000000	      0.0000000
      0.0000000	      0.0000000	      0.0000000
      0.0000000	      0.0000000	      0.0000000
      0.0000000	      0.0000000	      0.0000000
      0.0000000	      0.0000000	      0.0000000
      0.0000000	      0.0000000	      0.0000000
      0.0000000	      0.0000000	      0.0000000
      0.0000000	      0.0000000	      0.0000000
      0.0000000	      0.0000000	      0.0000000
      0.0000000	      0.0000000	      0.0000000
      0.0000000	      0.0000000	      0.0000000
      0.0000000	      0.0000000	      0.0000000
      0.0000000	      0.0000000	      0.0000000
      0.0000000	      0.0000000	      0.0000000
      0.0000000	      0.0000000	      0.0000000
      0.0000000	      0.0000000	      0.0000000
      0.0000000	      0.0000000	      0.0000000
      0.0000000	      0.0000000	      0.0000000
      0.0000000	      0.0000000	      0.0000000
      0.0000000	      0.0000000	      0.0000000
      0.0000000	      0.0000000	      0.0000000
      0.0000000	      0.0000000	      0.0000000
      0.0000000	      0.0000000	      0.0000000
      0.0000000	      0.0000000	      0.0000000
      0.0000000	      0.0000000	      0.0000000
      0.0000000	      0.0000000	      0.0000000
      0.0000000	      0.0000000	      0.0000000
      0.0000000	      0.0000000	      0.0000000
      0.0000000	      0.0000000	      0.0000000
      0.0000000	      0.0000000	      0.0000000
      0.0000000	      0.0000000	      0.0000000
      0.0000000	      0.0000000	      0.0000000
      0.0000000	      0.0000000	      0.0000000
      0.0000000	      0.0000000	      0.0000000
      0.0000000	      0.0000000	      0.0000000
      0.0000000	      0.0000000	      0.0000000
      0.0000000	      0.0000000	      0.0000000
      0.0000000	      0.0000000	      0.0000000
      0.0000000	      0.0000000	      0.0000000
      0.0000000	      0.0000000	      0.0000000
      0.0000000	      0.0000000	      0.0000000
      0.0000000	      0.0000000	      0.0000000
      0.0000000	      0.0000000	      0.0000000
      0.0000000	      0.0000000	      0.0000000
      0.0000000	      0.0000000	      0.0000000
      0.0000000	      0.0000000	      0.0000000
      0.0000000	      0.0000000	      0.0000000
      0.0000000	      0.0000000	      0.0000000
     -0.0003801	     -0.0005657	      0.0000000
     -0.0005431	     -0.0005902	      0.0000000
     -0.0007152	     -0.0005003	      0.0000000
     -0.0011509	     -0.0003456	      0.0000000
     -0.0017515	     -0.0002070	      0.0000000
     -0.0025697	     -0.0000803	      0.0000000
     -0.0035389	      0.0000197	      0.0000000
     -0.0046566	      0.0001011	      0.0000000
     -0.0058806	      0.0001624	      0.0000000
     -0.0071965	      0.0002093	      0.0000000
     -0.0085782	      0.0002429	      0.0000000
     -0.0100117	      0.0002669	      0.0000000
     -0.0114811	      0.0002827	      0.0000000
     -0.0129759	      0.0002925	      0.0000000
     -0.0144869	      0.0002974	      0.0000000
     -0.0160070	      0.0002988	      0.0000000
     -0.0175308	      0.0002975	      0.0000000
     -0.0190542	      0.0002942	      0.0000000
     -0.0205739	      0.0002894	      0.0000000
     -0.0220875	      0.0002835	      0.0000000
     -0.0235931	      0.0002767	      0.0000000
     -0.0250891	      0.0002692	      0.0000000
     -0.0265740	      0.0002609	      0.0000000
     -0.0280465	      0.0002519	      0.0000000
     -0.0295054	      0.0002422	      0.0000000
     -0.0309491	      0.0002315	      0.0000000
     -0.0323760	      0.0002198	      0.0000000
     -0.0337843	      0.0002070	      0.0000000
     -0.0351720	      0.0001928	      0.0000000
     -0.0365369	      0.0001772	      0.0000000
     -0.0378763	      0.0001599	      0.0000000
     -0.0391874	      0.0001407	      0.0000000
     -0.0404671	      0.0001195	      0.0000000
     -0.0417122	      0.0000962	      0.0000000
     -0.0429188	      0.0000704	      0.0000000
     -0.0440833	      0.0000422	      0.0000000
     -0.0452013	      0.0000112	      0.0000000
     -0.0462685	     -0.0000226	      0.0000000
     -0.0472804	     -0.0000593	      0.0000000
     -0.0482321	     -0.0000990	      0.0000000
     -0.0491189	     -0.0001418	      0.0000000
     -0.0499357	     -0.0001879	      0.0000000
     -0.0506774	     -0.0002371	      0.0000000
     -0.0513389	     -0.0002895	      0.0000000
     -0.0519151	     -0.0003450	      0.0000000
     -0.0524012	     -0.0004035	      0.0000000
     -0.0527922	     -0.0004650	      0.0000000
     -0.0530837	     -0.0005294	      0.0000000
     -0.0532713	     -0.0005964	      0.0000000
     -0.0533507	     -0.0006660	      0.0000000
     -0.0533178	     -0.0007381	      0.0000000
     -0.0531689	     -0.0008124	      0.0000000
     -0.0529009	     -0.0008885	      0.0000000
     -0.0525112	     -0.0009660	      0.0000000
     -0.0519976	     -0.0010445	      0.0000000
     -0.0513591	     -0.0011236	      0.0000000
     -0.0505950	     -0.0012026	      0.0000000
     -0.0497058	     -0.0012810	      0.0000000
     -0.0486927	     -0.0013582	      0.0000000
     -0.0475577	     -0.0014337	      0.0000000
     -0.0463039	     -0.0015068	      0.0000000
     -0.0449353	     -0.0015769	      0.0000000
     -0.0434568	     -0.0016435	      0.0000000
     -0.0418743	     -0.0017058	      0.0000000
     -0.0401945	     -0.0017635	      0.0000000
     -0.0384250	     -0.0018158	      0.0000000
     -0.0365741	     -0.0018623	      0.0000000
     -0.0346512	     -0.0019026	      0.0000000
     -0.0326660	     -0.0019362	      0.0000000
     -0.0306291	     -0.0019628	      0.0000000
     -0.0285514	     -0.0019821	      0.0000000
     -0.0264443	     -0.0019938	      0.0000000
     -0.0243198	     -0.0019978	      0.0000000
     -0.0221898	     -0.0019940	      0.0000000
     -0.0200665	     -0.0019823	      0.0000000
     -0.0179624	     -0.0019628	      0.0000000
     -0.0158898	     -0.0019354	      0.0000000
     -0.0138610	     -0.0019003	      0.0000000
     -0.0118883	     -0.0018575	      0.0000000
     -0.0099837	     -0.0018073	      0.0000000
     -0.0081593	     -0.0017498	      0.0000000
     -0.0064266	     -0.0016852	      0.0000000
     -0.0047973	     -0.0016137	      0.0000000
     -0.0032824	     -0.0015355	      0.0000000
     -0.0018932	     -0.0014508	      0.0000000
     -0.0006397	     -0.0013599	      0.0000000
      0.0004671	     -0.0012630	      0.0000000
      0.0014187	     -0.0011606	      0.0000000
      0.0022047	     -0.0010531	      0.0000000
      0.0028196	     -0.0009413	      0.0000000
      0.0032544	     -0.0008262	      0.0000000
      0.0035088	     -0.0007096	      0.0000000
      0.0035778	     -0.0005938	      0.0000000
      0.0034714	     -0.0004834	      0.0000000
      0.0031933	     -0.0003828	      0.0000000
      0.0027729	     -0.0003030	      0.0000000
      0.0022325	     -0.0002496	      0.0000000
      0.0016295	     -0.0002418	      0.0000000
      0.0010184	     -0.0002571	      0.0000000
      0.0004532	     -0.0002800	      0.0000000
      0.0000000	      0.0000000	      0.0000000
      0.0000000	      0.0000000	      0.0000000
     -0.0005728	     -0.0007059	      0.0000000
     -0.0010377	     -0.0006159	      0.0000000
     -0.0016689	     -0.0003250	      0.0000000
     -0.0026613	      0.0000924	      0.0000000
     -0.0039454	      0.0004837	      0.0000000
     -0.0055636	      0.0008496	      0.0000000
     -0.0074475	      0.0011531	      0.0000000
     -0.0095811	      0.0014078	      0.0000000
     -0.0119096	      0.0016078	      0.0000000
     -0.0144036	      0.0017657	      0.0000000
     -0.0170238	      0.0018838	      0.0000000
     -0.0197432	      0.0019715	      0.0000000
     -0.0225354	      0.0020327	      0.0000000
     -0.0253800	      0.0020738	      0.0000000
     -0.0282601	      0.0020982	      0.0000000
     -0.0311618	      0.0021102	      0.0000000
     -0.0340746	      0.0021121	      0.0000000
     -0.0369896	      0.0021066	      0.0000000
     -0.0399003	      0.0020952	      0.0000000
     -0.0428011	      0.0020792	      0.0000000
     -0.0456878	      0.0020595	      0.0000000
     -0.0485565	      0.0020366	      0.0000000
     -0.0514042	      0.0020108	      0.0000000
     -0.0542276	      0.0019822	      0.0000000
     -0.0570238	      0.0019505	      0.0000000
     -0.0597896	      0.0019157	      0.0000000
     -0.0625216	      0.0018772	      0.0000000
     -0.0652160	      0.0018347	      0.0000000
     -0.0678690	      0.0017877	      0.0000000
     -0.0704759	      0.0017357	      0.0000000
     -0.0730319	      0.0016781	      0.0000000
     -0.0755315	      0.0016145	      0.0000000
     -0.0779690	      0.0015441	      0.0000000
     -0.0803378	      0.0014666	      0.0000000
     -0.0826313	      0.0013813	      0.0000000
     -0.0848422	      0.0012879	      0.0000000
     -0.0869628	      0.0011857	      0.0000000
     -0.0889851	      0.0010744	      0.0000000
     -0.0909007	      0.0009536	      0.0000000
     -0.0927009	      0.0008229	      0.0000000
     -0.0943767	      0.0006822	      0.0000000
     -0.0959191	      0.0005313	      0.0000000
     -0.0973188	      0.0003701	      0.0000000
     -0.0985666	      0.0001985	      0.0000000
     -0.0996533	      0.0000169	      0.0000000
     -0.1005700	     -0.0001746	      0.0000000
     -0.1013079	     -0.0003755	      0.0000000
     -0.1018588	     -0.0005854	      0.0000000
     -0.1022148	     -0.0008040	      0.0000000
     -0.1023686	     -0.0010310	      0.0000000
     -0.1023130	     -0.0012656	      0.0000000
     -0.1020417	     -0.0015070	      0.0000000
     -0.1015491	     -0.0017542	      0.0000000
     -0.1008310	     -0.0020059	      0.0000000
     -0.0998839	     -0.0022607	      0.0000000
     -0.0987058	     -0.0025171	      0.0000000
     -0.0972962	     -0.0027733	      0.0000000
     -0.0956558	     -0.0030278	      0.0000000
     -0.0937870	     -0.0032786	      0.0000000
     -0.0916937	     -0.0035240	      0.0000000
     -0.0893816	     -0.0037619	      0.0000000
     -0.0868578	     -0.0039906	      0.0000000
     -0.0841312	     -0.0042081	      0.0000000
     -0.0812122	     -0.0044126	      0.0000000
     -0.0781129	     -0.0046022	      0.0000000
     -0.0748469	     -0.0047753	      0.0000000
     -0.0714290	     -0.0049303	      0.0000000
     -0.0678758	     -0.0050658	      0.0000000
     -0.0642046	     -0.0051803	      0.0000000
     -0.0604342	     -0.0052729	      0.0000000
     -0.0565841	     -0.0053424	      0.0000000
     -0.0526746	     -0.0053882	      0.0000000
     -0.0487270	     -0.0054096	      0.0000000
     -0.0447627	     -0.0054061	      0.0000000
     -0.0408036	     -0.0053776	      0.0000000
     -0.0368721	     -0.0053238	      0.0000000
     -0.0329904	     -0.0052449	      0.0000000
     -0.0291809	     -0.0051411	      0.0000000
     -0.0254658	     -0.0050125	      0.0000000
     -0.0218673	     -0.0048595	      0.0000000
     -0.0184074	     -0.0046825	      0.0000000
     -0.0151074	     -0.0044822	      0.0000000
     -0.0119890	     -0.0042588	      0.0000000
     -0.0090727	     -0.0040131	      0.0000000
     -0.0063794	     -0.0037458	      0.0000000
     -0.0039281	     -0.0034576	      0.0000000
     -0.0017388	     -0.0031496	      0.0000000
      0.0001720	     -0.0028233	      0.0000000
      0.0017862	     -0.0024805	      0.0000000
      0.0030922	     -0.0021241	      0.0000000
      0.0040757	     -0.0017578	      0.0000000
      0.0047346	     -0.0013876	      0.0000000
      0.0050627	     -0.0010211	      0.0000000
      0.0050752	     -0.0006710	      0.0000000
      0.0047810	     -0.0003516	      0.0000000
      0.0042269	     -0.0000883	      0.0000000
      0.0034456	      0.0000991	      0.0000000
      0.0025335	      0.0001693	      0.0000000
      0.0015526	      0.0001345	      0.0000000
      0.0006732	     -0.0000213	      0.0000000
      0.0000000	      0.0000000	      0.0000000
      0.0000000	      0.0000000	      0.0000000
     -0.0007477	     -0.0004912	      0.0000000
     -0.0015401	     -0.0001463	      0.0000000
     -0.0026692	      0.0004806	      0.0000000
     -0.0042539	      0.0012793	      0.0000000
     -0.0062412	      0.0020473	      0.0000000
     -0.0086486	      0.0027691	      0.0000000
     -0.0114115	      0.0033848	      0.0000000
     -0.0144988	      0.0039083	      0.0000000
     -0.0178512	      0.0043293	      0.0000000
     -0.0214267	      0.0046664	      0.0000000
     -0.0251784	      0.0049244	      0.0000000
     -0.0290691	      0.0051194	      0.0000000
     -0.0330649	      0.0052594	      0.0000000
     -0.0371375	      0.0053563	      0.0000000
     -0.0412638	      0.0054172	      0.0000000
     -0.0454241	      0.0054506	      0.0000000
     -0.0496033	      0.0054615	      0.0000000
     -0.0537883	      0.0054552	      0.0000000
     -0.0579694	      0.0054350	      0.0000000
     -0.0621378	      0.0054040	      0.0000000
     -0.0662869	      0.0053639	      0.0000000
     -0.0704106	      0.0053160	      0.0000000
     -0.0745038	      0.0052610	      0.0000000
     -0.0785612	      0.0051991	      0.0000000
     -0.0825783	      0.0051300	      0.0000000
     -0.0865499	      0.0050535	      0.0000000
     -0.0904709	      0.0049688	      0.0000000
     -0.0943357	      0.0048752	      0.0000000
     -0.0981382	      0.0047715	      0.0000000
     -0.1018718	      0.0046569	      0.0000000
     -0.1055294	      0.0045302	      0.0000000
     -0.1091032	      0.0043904	      0.0000000
     -0.1125849	      0.0042362	      0.0000000
     -0.1159654	      0.0040666	      0.0000000
     -0.1192351	      0.0038806	      0.0000000
     -0.1223840	      0.0036771	      0.0000000
     -0.1254012	      0.0034552	      0.0000000
     -0.1282756	      0.0032140	      0.0000000
     -0.1309956	      0.0029527	      0.0000000
     -0.1335492	      0.0026707	      0.0000000
     -0.1359240	      0.0023676	      0.0000000
     -0.1381074	      0.0020429	      0.0000000
     -0.1400870	      0.0016966	      0.0000000
     -0.1418500	      0.0013287	      0.0000000
     -0.1433840	      0.0009396	      0.0000000
     -0.1446767	      0.0005298	      0.0000000
     -0.1457162	      0.0001001	      0.0000000
     -0.1464911	     -0.0003484	      0.0000000
     -0.1469909	     -0.0008148	      0.0000000
     -0.1472057	     -0.0012983	      0.0000000
     -0.1471263	     -0.0017976	      0.0000000
     -0.1467442	     -0.0023108	      0.0000000
     -0.1460526	     -0.0028356	      0.0000000
     -0.1450457	     -0.0033695	      0.0000000
     -0.1437194	     -0.0039096	      0.0000000
     -0.1420715	     -0.0044526	      0.0000000
     -0.1401014	     -0.0049953	      0.0000000
     -0.1378105	     -0.0055341	      0.0000000
     -0.1352025	     -0.0060652	      0.0000000
     -0.1322829	     -0.0065848	      0.0000000
     -0.1290595	     -0.0070891	      0.0000000
     -0.1255422	     -0.0075742	      0.0000000
     -0.1217433	     -0.0080362	      0.0000000
     -0.1176770	     -0.0084714	      0.0000000
     -0.1133598	     -0.0088760	      0.0000000
     -0.1088098	     -0.0092465	      0.0000000
     -0.1040476	     -0.0095798	      0.0000000
     -0.0990951	     -0.0098727	      0.0000000
     -0.0939759	     -0.0101227	      0.0000000
     -0.0887154	     -0.0103272	      0.0000000
     -0.0833397	     -0.0104844	      0.0000000
     -0.0778766	     -0.0105923	      0.0000000
     -0.0723543	     -0.0106498	      0.0000000
     -0.0668022	     -0.0106558	      0.0000000
     -0.0612499	     -0.0106096	      0.0000000
     -0.0557274	     -0.0105110	      0.0000000
     -0.0502654	     -0.0103598	      0.0000000
     -0.0448940	     -0.0101562	      0.0000000
     -0.0396438	     -0.0099005	      0.0000000
     -0.0345451	     -0.0095934	      0.0000000
     -0.0296281	     -0.0092355	      0.0000000
     -0.0249224	     -0.0088276	      0.0000000
     -0.0204578	     -0.0083706	      0.0000000
     -0.0162628	     -0.0078659	      0.0000000
     -0.0123662	     -0.0073146	      0.0000000
     -0.0087949	     -0.0067184	      0.0000000
     -0.0055762	     -0.0060797	      0.0000000
     -0.0027336	     -0.0054016	      0.0000000
     -0.0002916	     -0.0046882	      0.0000000
      0.0017329	     -0.0039458	      0.0000000
      0.0033213	     -0.0031827	      0.0000000
      0.0044691	     -0.0024114	      0.0000000
      0.0051690	     -0.0016483	      0.0000000
      0.0054392	     -0.0009174	      0.0000000
      0.0052921	     -0.0002484	      0.0000000
      0.0047850	      0.0003154	      0.0000000
      0.0039597	      0.0007302	      0.0000000
      0.0029376	      0.0009322	      0.0000000
      0.0017950	      0.0008905	      0.0000000
      0.0007724	      0.0005527	      0.0000000
      0.0000000	      0.0000000	      0.0000000
      0.0000000	      0.0000000	      0.0000000
     -0.0009064	     -0.0001035	      0.0000000
     -0.0020360	      0.0006798	      0.0000000
     -0.0036845	      0.0017699	      0.0000000
     -0.0058777	      0.0030412	      0.0000000
     -0.0085734	      0.0042601	      0.0000000
     -0.0117522	      0.0054010	      0.0000000
     -0.0153566	      0.0063868	      0.0000000
     -0.0193387	      0.0072315	      0.0000000
     -0.0236401	      0.0079209	      0.0000000
     -0.0282081	      0.0084787	      0.0000000
     -0.0329927	      0.0089123	      0.0000000
     -0.0379484	      0.0092444	      0.0000000
     -0.0430368	      0.0094872	      0.0000000
     -0.0482231	      0.0096587	      0.0000000
     -0.0534798	      0.0097703	      0.0000000
     -0.0587821	      0.0098346	      0.0000000
     -0.0641111	      0.0098604	      0.0000000
     -0.0694498	      0.0098559	      0.0000000
     -0.0747854	      0.0098266	      0.0000000
     -0.0801064	      0.0097776	      0.0000000
     -0.0854035	      0.0097117	      0.0000000
     -0.0906683	      0.0096313	      0.0000000
     -0.0958936	      0.0095377	      0.0000000
     -0.1010722	      0.0094312	      0.0000000
     -0.1061977	      0.0093118	      0.0000000
     -0.1112629	      0.0091789	      0.0000000
     -0.1162610	      0.0090314	      0.0000000
     -0.1211843	      0.0088682	      0.0000000
     -0.1260250	      0.0086877	      0.0000000
     -0.1307744	      0.0084882	      0.0000000
     -0.1354233	      0.0082682	      0.0000000
     -0.1399616	      0.0080258	      0.0000000
     -0.1443788	      0.0077592	      0.0000000
     -0.1486634	      0.0074667	      0.0000000
     -0.1528035	      0.0071466	      0.0000000
     -0.1567863	      0.0067973	      0.0000000
     -0.1605984	      0.0064173	      0.0000000
     -0.1642260	      0.0060051	      0.0000000
     -0.1676546	      0.0055597	      0.0000000
     -0.1708694	      0.0050799	      0.0000000
     -0.1738553	      0.0045652	      0.0000000
     -0.1765969	      0.0040150	      0.0000000
     -0.1790788	      0.0034291	      0.0000000
     -0.1812856	      0.0028076	      0.0000000
     -0.1832020	      0.0021512	      0.0000000
     -0.1848133	      0.0014608	      0.0000000
     -0.1861049	      0.0007376	      0.0000000
     -0.1870632	     -0.0000165	      0.0000000
     -0.1876750	     -0.0007998	      0.0000000
     -0.1879289	     -0.0016106	      0.0000000
     -0.1878140	     -0.0024467	      0.0000000
     -0.1873205	     -0.0033049	      0.0000000
     -0.1864406	     -0.0041815	      0.0000000
     -0.1851678	     -0.0050723	      0.0000000
     -0.1834979	     -0.0059724	      0.0000000
     -0.1814284	     -0.0068769	      0.0000000
     -0.1789593	     -0.0077801	      0.0000000
     -0.1760929	     -0.0086764	      0.0000000
     -0.1728339	     -0.0095597	      0.0000000
     -0.1691895	     -0.0104239	      0.0000000
     -0.1651697	     -0.0112627	      0.0000000
     -0.1607868	     -0.0120698	      0.0000000
     -0.1560559	     -0.0128390	      0.0000000
     -0.1509945	     -0.0135641	      0.0000000
     -0.1456228	     -0.0142394	      0.0000000
     -0.1399630	     -0.0148590	      0.0000000
     -0.1340399	     -0.0154179	      0.0000000
     -0.1278802	     -0.0159111	      0.0000000
     -0.1215127	     -0.0163341	      0.0000000
     -0.1149677	     -0.0166832	      0.0000000
     -0.1082773	     -0.0169550	      0.0000000
     -0.1014747	     -0.0171466	      0.0000000
     -0.0945943	     -0.0172558	      0.0000000
     -0.0876714	     -0.0172809	      0.0000000
     -0.0807420	     -0.0172207	      0.0000000
     -0.0738424	     -0.0170745	      0.0000000
     -0.0670096	     -0.0168420	      0.0000000
     -0.0602804	     -0.0165232	      0.0000000
     -0.0536919	     -0.0161187	      0.0000000
     -0.0472810	     -0.0156292	      0.0000000
     -0.0410845	     -0.0150555	      0.0000000
     -0.0351385	     -0.0143988	      0.0000000
     -0.0294794	     -0.0136607	      0.0000000
     -0.0241423	     -0.0128428	      0.0000000
     -0.0191623	     -0.0119472	      0.0000000
     -0.0145725	     -0.0109770	      0.0000000
     -0.0104060	     -0.0099357	      0.0000000
     -0.0066918	     -0.0088286	      0.0000000
     -0.0034593	     -0.0076630	      0.0000000
     -0.0007297	     -0.0064492	      0.0000000
      0.0014751	     -0.0052014	      0.0000000
      0.0031486	     -0.0039397	      0.0000000
      0.0042828	     -0.0026910	      0.0000000
      0.0048973	     -0.0014922	      0.0000000
      0.0050068	     -0.0003906	      0.0000000
      0.0046754	      0.0005505	      0.0000000
      0.0039499	      0.0012587	      0.0000000
      0.0029690	      0.0016419	      0.0000000
      0.0018194	      0.0016162	      0.0000000
      0.0007799	      0.0010842	      0.0000000
      0.0000000	      0.0000000	      0.0000000
      0.0000000	      0.0000000	      0.0000000
     -0.0010555	      0.0005817	      0.0000000
     -0.0025063	      0.0019878	      0.0000000
     -0.0046528	      0.0036786	      0.0000000
     -0.0074356	      0.0055229	      0.0000000
     -0.0108166	      0.0072768	      0.0000000
     -0.0147371	      0.0089062	      0.0000000
     -0.0191432	      0.0103244	      0.0000000
     -0.0239692	      0.0115443	      0.0000000
     -0.0291575	      0.0125501	      0.0000000
     -0.0346454	      0.0133700	      0.0000000
     -0.0403817	      0.0140146	      0.0000000
     -0.0463138	      0.0145130	      0.0000000
     -0.0524005	      0.0148825	      0.0000000
     -0.0586019	      0.0151470	      0.0000000
     -0.0648872	      0.0153229	      0.0000000
     -0.0712275	      0.0154278	      0.0000000
     -0.0776009	      0.0154740	      0.0000000
     -0.0839871	      0.0154735	      0.0000000
     -0.0903707	      0.0154343	      0.0000000
     -0.0967374	      0.0153637	      0.0000000
     -0.1030758	      0.0152661	      0.0000000
     -0.1093752	      0.0151450	      0.0000000
     -0.1156264	      0.0150024	      0.0000000
     -0.1218204	      0.0148391	      0.0000000
     -0.1279487	      0.0146550	      0.0000000
     -0.1340025	      0.0144494	      0.0000000
     -0.1399730	      0.0142210	      0.0000000
     -0.1458508	      0.0139681	      0.0000000
     -0.1516262	      0.0136885	      0.0000000
     -0.1572886	      0.0133799	      0.0000000
     -0.1628268	      0.0130400	      0.0000000
     -0.1682288	      0.0126662	      0.0000000
     -0.1734819	      0.0122561	      0.0000000
     -0.1785726	      0.0118070	      0.0000000
     -0.1834866	      0.0113166	      0.0000000
     -0.1882089	      0.0107826	      0.0000000
     -0.1927238	      0.0102029	      0.0000000
     -0.1970152	      0.0095755	      0.0000000
     -0.2010661	      0.0088987	      0.0000000
     -0.2048595	      0.0081713	      0.0000000
     -0.2083776	      0.0073921	      0.0000000
     -0.2116029	      0.0065606	      0.0000000
     -0.2145174	      0.0056766	      0.0000000
     -0.2171035	      0.0047404	      0.0000000
     -0.2193438	      0.0037529	      0.0000000
     -0.2212211	      0.0027153	      0.0000000
     -0.2227191	      0.0016298	      0.0000000
     -0.2238220	      0.0004988	      0.0000000
     -0.2245153	     -0.0006747	      0.0000000
     -0.2247856	     -0.0018878	      0.0000000
     -0.2246210	     -0.0031371	      0.0000000
     -0.2240109	     -0.0044178	      0.0000000
     -0.2229468	     -0.0057245	      0.0000000
     -0.2214220	     -0.0070508	      0.0000000
     -0.2194321	     -0.0083898	      0.0000000
     -0.2169752	     -0.0097341	      0.0000000
     -0.2140517	     -0.0110757	      0.0000000
     -0.2106649	     -0.0124061	      0.0000000
     -0.2068207	     -0.0137168	      0.0000000
     -0.2025281	     -0.0149987	      0.0000000
     -0.1977989	     -0.0162428	      0.0000000
     -0.1926477	     -0.0174400	      0.0000000
     -0.1870922	     -0.0185813	      0.0000000
     -0.1811528	     -0.0196578	      0.0000000
     -0.1748529	     -0.0206612	      0.0000000
     -0.1682185	     -0.0215832	      0.0000000
     -0.1612779	     -0.0224162	      0.0000000
     -0.1540619	     -0.0231532	      0.0000000
     -0.1466037	     -0.0237879	      0.0000000
     -0.1389381	     -0.0243145	      0.0000000
     -0.1311016	     -0.0247282	      0.0000000
     -0.1231325	     -0.0250249	      0.0000000
     -0.1150699	     -0.0252013	      0.0000000
     -0.1069544	     -0.0252547	      0.0000000
     -0.0988269	     -0.0251835	      0.0000000
     -0.0907292	     -0.0249863	      0.0000000
     -0.0827032	     -0.0246626	      0.0000000
     -0.0747912	     -0.0242125	      0.0000000
     -0.0670356	     -0.0236363	      0.0000000
     -0.0594784	     -0.0229350	      0.0000000
     -0.0521617	     -0.0221097	      0.0000000
     -0.0451270	     -0.0211621	      0.0000000
     -0.0384158	     -0.0200940	      0.0000000
     -0.0320680	     -0.0189080	      0.0000000
     -0.0261241	     -0.0176071	      0.0000000
     -0.0206215	     -0.0161956	      0.0000000
     -0.0155983	     -0.0146792	      0.0000000
     -0.0110875	     -0.0130655	      0.0000000
     -0.0071223	     -0.0113656	      0.0000000
     -0.0037272	     -0.0095946	      0.0000000
     -0.0009264	     -0.0077736	      0.0000000
      0.0012716	     -0.0059316	      0.0000000
      0.0028581	     -0.0041075	      0.0000000
      0.0038534	     -0.0023530	      0.0000000
      0.0042738	     -0.0007354	      0.0000000
      0.0041870	      0.0006606	      0.0000000
      0.0036447	      0.0017296	      0.0000000
      0.0027938	      0.0023492	      0.0000000
      0.0017313	      0.0023753	      0.0000000
      0.0007453	      0.0016593	      0.0000000
      0.0000000	      0.0000000	      0.0000000
      0.0000000	      0.0000000	      0.0000000
     -0.0011957	      0.0014536	      0.0000000
     -0.0029520	      0.0036519	      0.0000000
     -0.0055726	      0.0060704	      0.0000000
     -0.0089200	      0.0085787	      0.0000000
     -0.0129566	      0.0109346	      0.0000000
     -0.0175831	      0.0131025	      0.0000000
     -0.0227475	      0.0149934	      0.0000000