# vtk DataFile Version 2.0
vw
ASCII
DATASET STRUCTURED_POINTS
DIMENSIONS  102  102    1
ORIGIN      0.0000000      0.0000000      0.0000000
SPACING      0.0100000      0.0100000      0.0100000
POINT_DATA  10404
VECTORS velocity float
      0.0000000	      0.0000000	      0.0000000
      0.0000000	      0.0000000	      0.0000000
      0.0000000	      0.0000000	      0.0000000
      0.0000000	      0.0000000	      0.0000000
      0.0000000	      0.0000000	      0.0000000
      0.0000000	      0.0000000	      0.0000000
      0.0000000	      0.0000000	      0.0000000
      0.0000000	      0.0000000	      0.0000000
      0.0000000	      0.0000000	      0.0000000
      0.0000000	      0.0000000	      0.0000000
      0.0000000	      0.0000000	      0.0000000
      0.0000000	      0.0000000	      0.0000000
      0.0000000	      0.0000000	      0.0000000
      0.0000000	      0.0000000	      0.0000000
      0.0000000	      0.0000000	      0.0000000
      0.0000000	      0.0000000	      0.0000000
      0.0000000	      0.0000000	      0.0000000
      0.0000000	      0.0000000	      0.0000000
      0.0000000	      0.0000000	      0.0000000
      0.0000000	      0.0000000	      0.0000000
      0.0000000	      0.0000000	      0.0000000
      0.0000000	      0.0000000	      0.0000000
      0.0000000	      0.0000000	      0.0000000
      0.0000000	      0.0000000	      0.0000000
      0.0000000	      0.0000000	      0.0000000
      0.0000000	      0.0000000	      0.0000000
      0.0000000	      0.0000000	      0.0000000
      0.0000000	      0.0000000	      0.0000000
      0.0000000	      0.0000000	      0.0000000
      0.0000000	      0.0000000	      0.0000000
      0.0000000	      0.0000000	      0.0000000
      0.0000000	      0.0000000	      0.0000000
      0.0000000	      0.0000000	      0.0000000
      0.0000000	      0.0000000	      0.0000000
      0.0000000	      0.0000000	      0.0000000
      0.0000000	      0.0000000	      0.0000000
      0.0000000	      0.0000000	      0.0000000
      0.0000000	      0.0000000	      0.0000000
      0.0000000	      0.0000000	      0.0000000
      0.0000000	      0.0000000	      0.0000000
      0.0000000	      0.0000000	      0.0000000
      0.0000000	      0.0000000	      0.0000000
      0.0000000	      0.0000000	      0.0000000
      0.0000000	      0.0000000	      0.0000000
      0.0000000	      0.0000000	      0.0000000
      0.0000000	      0.0000000	      0.0000000
      0.0000000	      0.0000000	      0.0000000
      0.0000000	      0.0000000	      0.0000000
      0.0000000	      0.0000000	      0.0000000
      0.0000000	      0.0000000	      0.0000000
      0.0000000	      0.0000000	      0.0000000
      0.0000000	      0.0000000	      0.0000000
      0.0000000	      0.0000000	      0.0000000
      0.0000000	      0.0000000	      0.0000000
      0.0000000	      0.0000000	      0.0000000
      0.0000000	      0.0000000	      0.0000000
      0.0000000	      0.0000000	      0.0000000
      0.0000000	      0.0000000	      0.0000000
      0.0000000	      0.0000000	      0.0000000
      0.0000000	      0.0000000	      0.0000000
      0.0000000	      0.0000000	      0.0000000
      0.0000000	      0.0000000	      0.0000000
      0.0000000	      0.0000000	      0.0000000
      0.0000000	      0.0000000	      0.0000000
      0.0000000	      0.0000000	      0.0000000
      0.0000000	      0.0000000	      0.0000000
      0.0000000	      0.0000000	      0.0000000
      0.0000000	      0.0000000	      0.0000000
      0.0000000	      0.0000000	      0.0000000
      0.0000000	      0.0000000	      0.0000000
      0.0000000	      0.0000000	      0.0000000
      0.0000000	      0.0000000	      0.0000000
      0.0000000	      0.0000000	      0.0000000
      0.0000000	      0.0000000	      0.0000000
      0.0000000	      0.0000000	      0.0000000
      0.0000000	      0.0000000	      0.0000000
      0.0000000	      0.0000000	      0.0000000
      0.0000000	      0.0000000	      0.0000000
      0.0000000	      0.0000000	      0.0000000
      0.0000000	      0.0000000	      0.0000000
      0.0000000	      0.0000000	      0.0000000
      0.0000000	      0.0000000	      0.0000000
      0.0000000	      0.0000000	      0.0000000
      0.0000000	      0.0000000	      0.0000000
      0.0000000	      0.0000000	      0.0000000
      0.0000000	      0.0000000	      0.0000000
      0.0000000	      0.0000000	      0.0000000
      0.0000000	      0.0000000	      0.0000000
      0.0000000	      0.0000000	      0.0000000
      0.0000000	      0.0000000	      0.0000000
      0.0000000	      0.0000000	      0.0000000
      0.0000000	      0.0000000	      0.0000000
      0.0000000	      0.0000000	      0.0000000
      0.0000000	      0.0000000	      0.0000000
      0.0000000	      0.0000000	      0.0000000
      0.0000000	      0.0000000	      0.0000000
      0.0000000	      0.0000000	      0.0000000
      0.0000000	      0.0000000	      0.0000000
      0.0000000	      0.0000000	      0.0000000
      0.0000000	      0.0000000	      0.0000000
      0.0000000	      0.0000000	      0.0000000
      0.0000000	      0.0000000	      0.0000000
      0.0000000	      0.0000000	      0.0000000
     -0.0002934	     -0.0004485	      0.0000000
     -0.0004436	     -0.0004468	      0.0000000
     -0.0006365	     -0.0003526	      0.0000000
     -0.0010700	     -0.0002072	      0.0000000
     -0.0016666	     -0.0000788	      0.0000000
     -0.0024598	      0.0000374	      0.0000000
     -0.0033961	      0.0001290	      0.0000000
     -0.0044666	      0.0002035	      0.0000000
     -0.0056369	      0.0002595	      0.0000000
     -0.0068905	      0.0003026	      0.0000000
     -0.0082060	      0.0003335	      0.0000000
     -0.0095686	      0.0003557	      0.0000000
     -0.0109652	      0.0003701	      0.0000000
     -0.0123852	      0.0003791	      0.0000000
     -0.0138204	      0.0003835	      0.0000000
     -0.0152640	      0.0003846	      0.0000000
     -0.0167112	      0.0003831	      0.0000000
     -0.0181576	      0.0003797	      0.0000000
     -0.0196007	      0.0003748	      0.0000000
     -0.0210377	      0.0003688	      0.0000000
     -0.0224672	      0.0003619	      0.0000000
     -0.0238872	      0.0003542	      0.0000000
     -0.0252968	      0.0003458	      0.0000000
     -0.0266946	      0.0003368	      0.0000000
     -0.0280794	      0.0003271	      0.0000000
     -0.0294500	      0.0003165	      0.0000000
     -0.0308049	      0.0003051	      0.0000000
     -0.0321426	      0.0002926	      0.0000000
     -0.0334615	      0.0002790	      0.0000000
     -0.0347596	      0.0002641	      0.0000000
     -0.0360349	      0.0002478	      0.0000000
     -0.0372850	      0.0002300	      0.0000000
     -0.0385073	      0.0002105	      0.0000000
     -0.0396992	      0.0001892	      0.0000000
     -0.0408577	      0.0001660	      0.0000000
     -0.0419796	      0.0001406	      0.0000000
     -0.0430616	      0.0001131	      0.0000000
     -0.0441002	      0.0000833	      0.0000000
     -0.0450916	      0.0000511	      0.0000000
     -0.0460320	      0.0000164	      0.0000000
     -0.0469175	     -0.0000209	      0.0000000
     -0.0477439	     -0.0000608	      0.0000000
     -0.0485071	     -0.0001033	      0.0000000
     -0.0492028	     -0.0001485	      0.0000000
     -0.0498269	     -0.0001964	      0.0000000
     -0.0503751	     -0.0002469	      0.0000000
     -0.0508433	     -0.0002998	      0.0000000
     -0.0512275	     -0.0003552	      0.0000000
     -0.0515240	     -0.0004130	      0.0000000
     -0.0517291	     -0.0004730	      0.0000000
     -0.0518394	     -0.0005351	      0.0000000
     -0.0518514	     -0.0005993	      0.0000000
     -0.0517620	     -0.0006653	      0.0000000
     -0.0515685	     -0.0007330	      0.0000000
     -0.0512684	     -0.0008019	      0.0000000
     -0.0508598	     -0.0008719	      0.0000000
     -0.0503415	     -0.0009424	      0.0000000
     -0.0497126	     -0.0010131	      0.0000000
     -0.0489730	     -0.0010837	      0.0000000
     -0.0481233	     -0.0011535	      0.0000000
     -0.0471646	     -0.0012223	      0.0000000
     -0.0460989	     -0.0012894	      0.0000000
     -0.0449288	     -0.0013545	      0.0000000
     -0.0436576	     -0.0014170	      0.0000000
     -0.0422895	     -0.0014765	      0.0000000
     -0.0408293	     -0.0015325	      0.0000000
     -0.0392826	     -0.0015847	      0.0000000
     -0.0376554	     -0.0016324	      0.0000000
     -0.0359546	     -0.0016755	      0.0000000
     -0.0341877	     -0.0017134	      0.0000000
     -0.0323628	     -0.0017458	      0.0000000
     -0.0304883	     -0.0017725	      0.0000000
     -0.0285732	     -0.0017931	      0.0000000
     -0.0266270	     -0.0018075	      0.0000000
     -0.0246595	     -0.0018154	      0.0000000
     -0.0226809	     -0.0018167	      0.0000000
     -0.0207015	     -0.0018112	      0.0000000
     -0.0187320	     -0.0017989	      0.0000000
     -0.0167833	     -0.0017796	      0.0000000
     -0.0148666	     -0.0017532	      0.0000000
     -0.0129931	     -0.0017197	      0.0000000
     -0.0111742	     -0.0016790	      0.0000000
     -0.0094217	     -0.0016310	      0.0000000
     -0.0077474	     -0.0015758	      0.0000000
     -0.0061632	     -0.0015131	      0.0000000
     -0.0046813	     -0.0014430	      0.0000000
     -0.0033139	     -0.0013654	      0.0000000
     -0.0020733	     -0.0012802	      0.0000000
     -0.0009718	     -0.0011876	      0.0000000
     -0.0000211	     -0.0010877	      0.0000000
      0.0007673	     -0.0009811	      0.0000000
      0.0013840	     -0.0008686	      0.0000000
      0.0018200	     -0.0007518	      0.0000000
      0.0020724	     -0.0006334	      0.0000000
      0.0021391	     -0.0005176	      0.0000000
      0.0020313	     -0.0004119	      0.0000000
      0.0017643	     -0.0003236	      0.0000000
      0.0013745	     -0.0002688	      0.0000000
      0.0009112	     -0.0002381	      0.0000000
      0.0004255	     -0.0002261	      0.0000000
      0.0000000	      0.0000000	      0.0000000
      0.0000000	      0.0000000	      0.0000000
     -0.0004649	     -0.0005368	      0.0000000
     -0.0008944	     -0.0004022	      0.0000000
     -0.0015145	     -0.0001055	      0.0000000
     -0.0024722	      0.0002907	      0.0000000
     -0.0037144	      0.0006567	      0.0000000
     -0.0052631	      0.0009952	      0.0000000
     -0.0070627	      0.0012751	      0.0000000
     -0.0090902	      0.0015094	      0.0000000
     -0.0113001	      0.0016935	      0.0000000
     -0.0136613	      0.0018390	      0.0000000
     -0.0161404	      0.0019480	      0.0000000
     -0.0187105	      0.0020291	      0.0000000
     -0.0213487	      0.0020857	      0.0000000
     -0.0240351	      0.0021237	      0.0000000
     -0.0267548	      0.0021461	      0.0000000
     -0.0294942	      0.0021568	      0.0000000
     -0.0322439	      0.0021580	      0.0000000
     -0.0349954	      0.0021521	      0.0000000
     -0.0377426	      0.0021406	      0.0000000
     -0.0404802	      0.0021247	      0.0000000
     -0.0432044	      0.0021052	      0.0000000
     -0.0459114	      0.0020828	      0.0000000
     -0.0485985	      0.0020575	      0.0000000
     -0.0512628	      0.0020297	      0.0000000
     -0.0539017	      0.0019992	      0.0000000
     -0.0565124	      0.0019658	      0.0000000
     -0.0590921	      0.0019293	      0.0000000
     -0.0616375	      0.0018894	      0.0000000
     -0.0641454	      0.0018457	      0.0000000
     -0.0666121	      0.0017978	      0.0000000
     -0.0690334	      0.0017453	      0.0000000
     -0.0714049	      0.0016877	      0.0000000
     -0.0737219	      0.0016247	      0.0000000
     -0.0759793	      0.0015557	      0.0000000
     -0.0781715	      0.0014805	      0.0000000
     -0.0802927	      0.0013986	      0.0000000
     -0.0823366	      0.0013096	      0.0000000
     -0.0842969	      0.0012132	      0.0000000
     -0.0861667	      0.0011090	      0.0000000
     -0.0879389	      0.0009969	      0.0000000
     -0.0896064	      0.0008764	      0.0000000
     -0.0911616	      0.0007476	      0.0000000
     -0.0925971	      0.0006103	      0.0000000
     -0.0939051	      0.0004644	      0.0000000
     -0.0950781	      0.0003099	      0.0000000
     -0.0961084	      0.0001471	      0.0000000
     -0.0969887	     -0.0000240	      0.0000000
     -0.0977115	     -0.0002029	      0.0000000
     -0.0982701	     -0.0003893	      0.0000000
     -0.0986580	     -0.0005828	      0.0000000
     -0.0988690	     -0.0007831	      0.0000000
     -0.0988971	     -0.0009900	      0.0000000
     -0.0987370	     -0.0012028	      0.0000000
     -0.0983837	     -0.0014207	      0.0000000
     -0.0978333	     -0.0016427	      0.0000000
     -0.0970825	     -0.0018678	      0.0000000
     -0.0961290	     -0.0020949	      0.0000000
     -0.0949717	     -0.0023227	      0.0000000
     -0.0936105	     -0.0025499	      0.0000000
     -0.0920464	     -0.0027751	      0.0000000
     -0.0902816	     -0.0029969	      0.0000000
     -0.0883196	     -0.0032138	      0.0000000
     -0.0861653	     -0.0034244	      0.0000000
     -0.0838247	     -0.0036272	      0.0000000
     -0.0813050	     -0.0038206	      0.0000000
     -0.0786149	     -0.0040033	      0.0000000
     -0.0757642	     -0.0041738	      0.0000000
     -0.0727639	     -0.0043308	      0.0000000
     -0.0696261	     -0.0044731	      0.0000000
     -0.0663641	     -0.0045994	      0.0000000
     -0.0629921	     -0.0047086	      0.0000000
     -0.0595254	     -0.0047998	      0.0000000
     -0.0559798	     -0.0048721	      0.0000000
     -0.0523723	     -0.0049246	      0.0000000
     -0.0487204	     -0.0049566	      0.0000000
     -0.0450422	     -0.0049677	      0.0000000
     -0.0413565	     -0.0049571	      0.0000000
     -0.0376825	     -0.0049246	      0.0000000
     -0.0340400	     -0.0048696	      0.0000000
     -0.0304490	     -0.0047918	      0.0000000
     -0.0269302	     -0.0046908	      0.0000000
     -0.0235045	     -0.0045664	      0.0000000
     -0.0201934	     -0.0044182	      0.0000000
     -0.0170185	     -0.0042459	      0.0000000
     -0.0140019	     -0.0040492	      0.0000000
     -0.0111661	     -0.0038280	      0.0000000
     -0.0085336	     -0.0035820	      0.0000000
     -0.0061268	     -0.0033114	      0.0000000
     -0.0039682	     -0.0030168	      0.0000000
     -0.0020789	     -0.0026990	      0.0000000
     -0.0004797	     -0.0023601	      0.0000000
      0.0008131	     -0.0020033	      0.0000000
      0.0017843	     -0.0016342	      0.0000000
      0.0024288	     -0.0012611	      0.0000000
      0.0027442	     -0.0008968	      0.0000000
      0.0027493	     -0.0005604	      0.0000000
      0.0024657	     -0.0002749	      0.0000000
      0.0019572	     -0.0000768	      0.0000000
      0.0012823	      0.0000204	      0.0000000
      0.0005888	     -0.0000135	      0.0000000
      0.0000000	      0.0000000	      0.0000000
      0.0000000	      0.0000000	      0.0000000
     -0.0006253	     -0.0003115	      0.0000000
     -0.0013557	      0.0000908	      0.0000000
     -0.0024333	      0.0007189	      0.0000000
     -0.0039376	      0.0014803	      0.0000000
     -0.0058302	      0.0022012	      0.0000000
     -0.0081100	      0.0028716	      0.0000000
     -0.0107246	      0.0034411	      0.0000000
     -0.0136367	      0.0039242	      0.0000000
     -0.0167963	      0.0043126	      0.0000000
     -0.0201607	      0.0046237	      0.0000000
     -0.0236893	      0.0048622	      0.0000000
     -0.0273456	      0.0050425	      0.0000000
     -0.0310999	      0.0051720	      0.0000000
     -0.0349249	      0.0052616	      0.0000000
     -0.0387999	      0.0053177	      0.0000000
     -0.0427060	      0.0053479	      0.0000000
     -0.0466295	      0.0053570	      0.0000000
     -0.0505580	      0.0053499	      0.0000000
     -0.0544824	      0.0053297	      0.0000000
     -0.0583945	      0.0052993	      0.0000000
     -0.0622883	      0.0052602	      0.0000000
     -0.0661581	      0.0052139	      0.0000000
     -0.0699992	      0.0051610	      0.0000000
     -0.0738072	      0.0051019	      0.0000000
     -0.0775778	      0.0050366	      0.0000000
     -0.0813067	      0.0049647	      0.0000000
     -0.0849897	      0.0048859	      0.0000000
     -0.0886218	      0.0047994	      0.0000000
     -0.0921982	      0.0047046	      0.0000000
     -0.0957134	      0.0046007	      0.0000000
     -0.0991615	      0.0044868	      0.0000000
     -0.1025362	      0.0043621	      0.0000000
     -0.1058308	      0.0042257	      0.0000000
     -0.1090379	      0.0040768	      0.0000000
     -0.1121498	      0.0039145	      0.0000000
     -0.1151583	      0.0037380	      0.0000000
     -0.1180548	      0.0035466	      0.0000000
     -0.1208302	      0.0033395	      0.0000000
     -0.1234753	      0.0031162	      0.0000000
     -0.1259802	      0.0028760	      0.0000000
     -0.1283349	      0.0026186	      0.0000000
     -0.1305293	      0.0023435	      0.0000000
     -0.1325530	      0.0020505	      0.0000000
     -0.1343956	      0.0017396	      0.0000000
     -0.1360465	      0.0014108	      0.0000000
     -0.1374955	      0.0010644	      0.0000000
     -0.1387325	      0.0007007	      0.0000000
     -0.1397476	      0.0003205	      0.0000000
     -0.1405312	     -0.0000753	      0.0000000
     -0.1410745	     -0.0004860	      0.0000000
     -0.1413692	     -0.0009109	      0.0000000
     -0.1414075	     -0.0013492	      0.0000000
     -0.1411822	     -0.0017995	      0.0000000
     -0.1406871	     -0.0022602	      0.0000000
     -0.1399170	     -0.0027294	      0.0000000
     -0.1388677	     -0.0032049	      0.0000000
     -0.1375365	     -0.0036843	      0.0000000
     -0.1359219	     -0.0041651	      0.0000000
     -0.1340242	     -0.0046446	      0.0000000
     -0.1318448	     -0.0051200	      0.0000000
     -0.1293871	     -0.0055883	      0.0000000
     -0.1266559	     -0.0060466	      0.0000000
     -0.1236579	     -0.0064919	      0.0000000
     -0.1204013	     -0.0069210	      0.0000000
     -0.1168960	     -0.0073311	      0.0000000
     -0.1131538	     -0.0077190	      0.0000000
     -0.1091879	     -0.0080821	      0.0000000
     -0.1050132	     -0.0084174	      0.0000000
     -0.1006462	     -0.0087224	      0.0000000
     -0.0961046	     -0.0089947	      0.0000000
     -0.0914078	     -0.0092319	      0.0000000
     -0.0865761	     -0.0094319	      0.0000000
     -0.0816312	     -0.0095928	      0.0000000
     -0.0765958	     -0.0097130	      0.0000000
     -0.0714937	     -0.0097909	      0.0000000
     -0.0663493	     -0.0098251	      0.0000000
     -0.0611881	     -0.0098145	      0.0000000
     -0.0560362	     -0.0097580	      0.0000000
     -0.0509205	     -0.0096545	      0.0000000
     -0.0458685	     -0.0095032	      0.0000000
     -0.0409082	     -0.0093032	      0.0000000
     -0.0360685	     -0.0090536	      0.0000000
     -0.0313786	     -0.0087537	      0.0000000
     -0.0268685	     -0.0084026	      0.0000000
     -0.0225685	     -0.0079999	      0.0000000
     -0.0185094	     -0.0075447	      0.0000000
     -0.0147223	     -0.0070372	      0.0000000
     -0.0112381	     -0.0064774	      0.0000000
     -0.0080873	     -0.0058667	      0.0000000
     -0.0052990	     -0.0052074	      0.0000000
     -0.0029008	     -0.0045041	      0.0000000
     -0.0009153	     -0.0037639	      0.0000000
      0.0006377	     -0.0029989	      0.0000000
      0.0017505	     -0.0022256	      0.0000000
      0.0024207	     -0.0014704	      0.0000000
      0.0026706	     -0.0007674	      0.0000000
      0.0025279	     -0.0001648	      0.0000000
      0.0020721	      0.0002780	      0.0000000
      0.0013758	      0.0004966	      0.0000000
      0.0006349	      0.0004181	      0.0000000
      0.0000000	      0.0000000	      0.0000000
      0.0000000	      0.0000000	      0.0000000
     -0.0007738	      0.0000825	      0.0000000
     -0.0018132	      0.0009163	      0.0000000
     -0.0033634	      0.0019906	      0.0000000
     -0.0054216	      0.0032002	      0.0000000
     -0.0079591	      0.0043445	      0.0000000
     -0.0109426	      0.0054055	      0.0000000
     -0.0143254	      0.0063190	      0.0000000
     -0.0180557	      0.0070995	      0.0000000
     -0.0220837	      0.0077363	      0.0000000
     -0.0263569	      0.0082516	      0.0000000
     -0.0308317	      0.0086525	      0.0000000
     -0.0354640	      0.0089595	      0.0000000
     -0.0402196	      0.0091842	      0.0000000
     -0.0450654	      0.0093426	      0.0000000
     -0.0499764	      0.0094452	      0.0000000
     -0.0549291	      0.0095038	      0.0000000
     -0.0599063	      0.0095261	      0.0000000
     -0.0648919	      0.0095200	      0.0000000
     -0.0698741	      0.0094906	      0.0000000
     -0.0748421	      0.0094427	      0.0000000
     -0.0797876	      0.0093791	      0.0000000
     -0.0847028	      0.0093022	      0.0000000
     -0.0895813	      0.0092132	      0.0000000
     -0.0944168	      0.0091128	      0.0000000
     -0.0992035	      0.0090010	      0.0000000
     -0.1039356	      0.0088776	      0.0000000
     -0.1086071	      0.0087418	      0.0000000
     -0.1132118	      0.0085927	      0.0000000
     -0.1177430	      0.0084293	      0.0000000
     -0.1221937	      0.0082502	      0.0000000
     -0.1265564	      0.0080542	      0.0000000
     -0.1308230	      0.0078398	      0.0000000
     -0.1349848	      0.0076058	      0.0000000
     -0.1390328	      0.0073508	      0.0000000
     -0.1429571	      0.0070733	      0.0000000
     -0.1467476	      0.0067723	      0.0000000
     -0.1503935	      0.0064463	      0.0000000
     -0.1538837	      0.0060944	      0.0000000
     -0.1572065	      0.0057156	      0.0000000
     -0.1603500	      0.0053088	      0.0000000
     -0.1633018	      0.0048735	      0.0000000
     -0.1660495	      0.0044091	      0.0000000
     -0.1685804	      0.0039153	      0.0000000
     -0.1708817	      0.0033919	      0.0000000
     -0.1729408	      0.0028391	      0.0000000
     -0.1747451	      0.0022574	      0.0000000
     -0.1762822	      0.0016474	      0.0000000
     -0.1775402	      0.0010101	      0.0000000
     -0.1785077	      0.0003469	      0.0000000
     -0.1791738	     -0.0003407	      0.0000000
     -0.1795283	     -0.0010511	      0.0000000
     -0.1795623	     -0.0017831	      0.0000000
     -0.1792673	     -0.0025343	      0.0000000
     -0.1786360	     -0.0033022	      0.0000000
     -0.1776625	     -0.0040834	      0.0000000
     -0.1763422	     -0.0048745	      0.0000000
     -0.1746723	     -0.0056716	      0.0000000
     -0.1726512	     -0.0064706	      0.0000000
     -0.1702796	     -0.0072672	      0.0000000
     -0.1675596	     -0.0080567	      0.0000000
     -0.1644956	     -0.0088345	      0.0000000
     -0.1610937	     -0.0095957	      0.0000000
     -0.1573622	     -0.0103354	      0.0000000
     -0.1533113	     -0.0110488	      0.0000000
     -0.1489533	     -0.0117309	      0.0000000
     -0.1443024	     -0.0123771	      0.0000000
     -0.1393750	     -0.0129826	      0.0000000
     -0.1341890	     -0.0135430	      0.0000000
     -0.1287643	     -0.0140539	      0.0000000
     -0.1231228	     -0.0145116	      0.0000000
     -0.1172876	     -0.0149121	      0.0000000
     -0.1112835	     -0.0152521	      0.0000000
     -0.1051366	     -0.0155284	      0.0000000
     -0.0988746	     -0.0157382	      0.0000000
     -0.0925261	     -0.0158790	      0.0000000
     -0.0861208	     -0.0159484	      0.0000000
     -0.0796895	     -0.0159443	      0.0000000
     -0.0732639	     -0.0158649	      0.0000000
     -0.0668766	     -0.0157084	      0.0000000
     -0.0605610	     -0.0154731	      0.0000000
     -0.0543514	     -0.0151576	      0.0000000
     -0.0482826	     -0.0147602	      0.0000000
     -0.0423904	     -0.0142796	      0.0000000
     -0.0367113	     -0.0137144	      0.0000000
     -0.0312822	     -0.0130635	      0.0000000
     -0.0261405	     -0.0123259	      0.0000000
     -0.0213240	     -0.0115017	      0.0000000
     -0.0168700	     -0.0105912	      0.0000000
     -0.0128155	     -0.0095969	      0.0000000
     -0.0091954	     -0.0085229	      0.0000000
     -0.0060426	     -0.0073774	      0.0000000
     -0.0033842	     -0.0061720	      0.0000000
     -0.0012429	     -0.0049266	      0.0000000
      0.0003712	     -0.0036678	      0.0000000
      0.0014555	     -0.0024370	      0.0000000
      0.0020343	     -0.0012861	      0.0000000
      0.0021392	     -0.0002912	      0.0000000
      0.0018576	      0.0004598	      0.0000000
      0.0012731	      0.0008470	      0.0000000
      0.0005977	      0.0007498	      0.0000000
      0.0000000	      0.0000000	      0.0000000
      0.0000000	      0.0000000	      0.0000000
     -0.0009108	      0.0007440	      0.0000000
     -0.0022414	      0.0021755	      0.0000000
     -0.0042412	      0.0038201	      0.0000000
     -0.0068307	      0.0055692	      0.0000000
     -0.0099856	      0.0072140	      0.0000000
     -0.0136377	      0.0087298	      0.0000000
     -0.0177440	      0.0100446	      0.0000000
     -0.0222366	      0.0111728	      0.0000000
     -0.0270664	      0.0121024	      0.0000000
     -0.0321721	      0.0128601	      0.0000000
     -0.0375084	      0.0134562	      0.0000000
     -0.0430252	      0.0139170	      0.0000000
     -0.0486856	      0.0142586	      0.0000000
     -0.0544513	      0.0145029	      0.0000000
     -0.0602947	      0.0146646	      0.0000000
     -0.0661883	      0.0147600	      0.0000000
     -0.0721121	      0.0148006	      0.0000000
     -0.0780470	      0.0147974	      0.0000000
     -0.0839789	      0.0147581	      0.0000000
     -0.0898945	      0.0146895	      0.0000000
     -0.0957836	      0.0145960	      0.0000000
     -0.1016364	      0.0144810	      0.0000000
     -0.1074447	      0.0143466	      0.0000000
     -0.1132007	      0.0141939	      0.0000000
     -0.1188970	      0.0140232	      0.0000000
     -0.1245261	      0.0138340	      0.0000000
     -0.1300808	      0.0136255	      0.0000000
     -0.1355531	      0.0133964	      0.0000000
     -0.1409350	      0.0131452	      0.0000000
     -0.1462180	      0.0128702	      0.0000000
     -0.1513930	      0.0125695	      0.0000000
     -0.1564502	      0.0122412	      0.0000000
     -0.1613795	      0.0118834	      0.0000000
     -0.1661699	      0.0114940	      0.0000000
     -0.1708100	      0.0110713	      0.0000000
     -0.1752878	      0.0106133	      0.0000000
     -0.1795908	      0.0101184	      0.0000000
     -0.1837058	      0.0095850	      0.0000000
     -0.1876193	      0.0090116	      0.0000000
     -0.1913176	      0.0083971	      0.0000000
     -0.1947862	      0.0077405	      0.0000000
     -0.1980108	      0.0070410	      0.0000000
     -0.2009768	      0.0062981	      0.0000000
     -0.2036696	      0.0055118	      0.0000000
     -0.2060744	      0.0046824	      0.0000000
     -0.2081770	      0.0038104	      0.0000000
     -0.2099633	      0.0028970	      0.0000000
     -0.2114196	      0.0019436	      0.0000000
     -0.2125328	      0.0009521	      0.0000000
     -0.2132907	     -0.0000750	      0.0000000
     -0.2136816	     -0.0011355	      0.0000000
     -0.2136955	     -0.0022268	      0.0000000
     -0.2133229	     -0.0033457	      0.0000000
     -0.2125562	     -0.0044882	      0.0000000
     -0.2113888	     -0.0056495	      0.0000000
     -0.2098161	     -0.0068245	      0.0000000
     -0.2078350	     -0.0080077	      0.0000000
     -0.2054445	     -0.0091930	      0.0000000
     -0.2026456	     -0.0103741	      0.0000000
     -0.1994412	     -0.0115443	      0.0000000
     -0.1958366	     -0.0126969	      0.0000000
     -0.1918394	     -0.0138249	      0.0000000
     -0.1874592	     -0.0149211	      0.0000000
     -0.1827081	     -0.0159785	      0.0000000
     -0.1776005	     -0.0169900	      0.0000000
     -0.1721528	     -0.0179488	      0.0000000
     -0.1663840	     -0.0188481	      0.0000000
     -0.1603148	     -0.0196814	      0.0000000
     -0.1539683	     -0.0204426	      0.0000000
     -0.1473694	     -0.0211259	      0.0000000
     -0.1405448	     -0.0217258	      0.0000000
     -0.1335228	     -0.0222373	      0.0000000
     -0.1263336	     -0.0226559	      0.0000000
     -0.1190087	     -0.0229774	      0.0000000
     -0.1115808	     -0.0231979	      0.0000000
     -0.1040840	     -0.0233140	      0.0000000
     -0.0965535	     -0.0233227	      0.0000000
     -0.0890257	     -0.0232209	      0.0000000
     -0.0815376	     -0.0230061	      0.0000000
     -0.0741276	     -0.0226758	      0.0000000
     -0.0668348	     -0.0222274	      0.0000000
     -0.0596991	     -0.0216588	      0.0000000
     -0.0527612	     -0.0209676	      0.0000000
     -0.0460627	     -0.0201520	      0.0000000
     -0.0396458	     -0.0192101	      0.0000000
     -0.0335531	     -0.0181408	      0.0000000
     -0.0278273	     -0.0169441	      0.0000000
     -0.0225110	     -0.0156209	      0.0000000
     -0.0176457	     -0.0141751	      0.0000000
     -0.0132708	     -0.0126130	      0.0000000
     -0.0094229	     -0.0109471	      0.0000000
     -0.0061329	     -0.0091946	      0.0000000
     -0.0034256	     -0.0073844	      0.0000000
     -0.0013134	     -0.0055542	      0.0000000
      0.0002018	     -0.0037628	      0.0000000
      0.0011429	     -0.0020813	      0.0000000
      0.0015461	     -0.0006167	      0.0000000
      0.0014981	      0.0005127	      0.0000000
      0.0010927	      0.0011290	      0.0000000
      0.0005324	      0.0010602	      0.0000000
      0.0000000	      0.0000000	      0.0000000
      0.0000000	      0.0000000	      0.0000000
     -0.0010380	      0.0015780	      0.0000000
     -0.0026432	      0.0037581	      0.0000000
     -0.0050675	      0.0060856	      0.0000000
     -0.0081612	      0.0084546	      0.0000000
     -0.0119010	      0.0106592	      0.0000000
     -0.0161829	      0.0126745	      0.0000000
     -0.0209659	      0.0144271	      0.0000000