# vtk DataFile Version 2.0
vw
ASCII
DATASET STRUCTURED_POINTS
DIMENSIONS  102  102    1
ORIGIN      0.0000000      0.0000000      0.0000000
SPACING      0.0100000      0.0100000      0.0100000
POINT_DATA  10404
VECTORS velocity float
      0.0000000	      0.0000000	      0.0000000
      0.0000000	      0.0000000	      0.0000000
      0.0000000	      0.0000000	      0.0000000
      0.0000000	      0.0000000	      0.0000000
      0.0000000	      0.0000000	      0.0000000
      0.0000000	      0.0000000	      0.0000000
      0.0000000	      0.0000000	      0.0000000
      0.0000000	      0.0000000	      0.0000000
      0.0000000	      0.0000000	      0.0000000
      0.0000000	      0.0000000	      0.0000000
      0.0000000	      0.0000000	      0.0000000
      0.0000000	      0.0000000	      0.0000000
      0.0000000	      0.0000000	      0.0000000
      0.0000000	      0.0000000	      0.0000000
      0.0000000	      0.0000000	      0.0000000
      0.0000000	      0.0000000	      0.0000000
      0.0000000	      0.0000000	      0.0000000
      0.0000000	      0.0000000	      0.0000000
      0.0000000	      0.0000000	      0.0000000
      0.0000000	      0.0000000	      0.0000000
      0.0000000	      0.0000000	      0.0000000
      0.0000000	      0.0000000	      0.0000000
      0.0000000	      0.0000000	      0.0000000
      0.0000000	      0.0000000	      0.0000000
      0.0000000	      0.0000000	      0.0000000
      0.0000000	      0.0000000	      0.0000000
      0.0000000	      0.0000000	      0.0000000
      0.0000000	      0.0000000	      0.0000000
      0.0000000	      0.0000000	      0.0000000
      0.0000000	      0.0000000	      0.0000000
      0.0000000	      0.0000000	      0.0000000
      0.0000000	      0.0000000	      0.0000000
      0.0000000	      0.0000000	      0.0000000
      0.0000000	      0.0000000	      0.0000000
      0.0000000	      0.0000000	      0.0000000
      0.0000000	      0.0000000	      0.0000000
      0.0000000	      0.0000000	      0.0000000
      0.0000000	      0.0000000	      0.0000000
      0.0000000	      0.0000000	      0.0000000
      0.0000000	      0.0000000	      0.0000000
      0.0000000	      0.0000000	      0.0000000
      0.0000000	      0.0000000	      0.0000000
      0.0000000	      0.0000000	      0.0000000
      0.0000000	      0.0000000	      0.0000000
      0.0000000	      0.0000000	      0.0000000
      0.0000000	      0.0000000	      0.0000000
      0.0000000	      0.0000000	      0.0000000
      0.0000000	      0.0000000	      0.0000000
      0.0000000	      0.0000000	      0.0000000
      0.0000000	      0.0000000	      0.0000000
      0.0000000	      0.0000000	      0.0000000
      0.0000000	      0.0000000	      0.0000000
      0.0000000	      0.0000000	      0.0000000
      0.0000000	      0.0000000	      0.0000000
      0.0000000	      0.0000000	      0.0000000
      0.0000000	      0.0000000	      0.0000000
      0.0000000	      0.0000000	      0.0000000
      0.0000000	      0.0000000	      0.0000000
      0.0000000	      0.0000000	      0.0000000
      0.0000000	      0.0000000	      0.0000000
      0.0000000	      0.0000000	      0.0000000
      0.0000000	      0.0000000	      0.0000000
      0.0000000	      0.0000000	      0.0000000
      0.0000000	      0.0000000	      0.0000000
      0.0000000	      0.0000000	      0.0000000
      0.0000000	      0.0000000	      0.0000000
      0.0000000	      0.0000000	      0.0000000
      0.0000000	      0.0000000	      0.0000000
      0.0000000	      0.0000000	      0.0000000
      0.0000000	      0.0000000	      0.0000000
      0.0000000	      0.0000000	      0.0000000
      0.0000000	      0.0000000	      0.0000000
      0.0000000	      0.0000000	      0.0000000
      0.0000000	      0.0000000	      0.0000000
      0.0000000	      0.0000000	      0.0000000
      0.0000000	      0.0000000	      0.0000000
      0.0000000	      0.0000000	      0.0000000
      0.0000000	      0.0000000	      0.0000000
      0.0000000	      0.0000000	      0.0000000
      0.0000000	      0.0000000	      0.0000000
      0.0000000	      0.0000000	      0.0000000
      0.0000000	      0.0000000	      0.0000000
      0.0000000	      0.0000000	      0.0000000
      0.0000000	      0.0000000	      0.0000000
      0.0000000	      0.0000000	      0.0000000
      0.0000000	      0.0000000	      0.0000000
      0.0000000	      0.0000000	      0.0000000
      0.0000000	      0.0000000	      0.0000000
      0.0000000	      0.0000000	      0.0000000
      0.0000000	      0.0000000	      0.0000000
      0.0000000	      0.0000000	      0.0000000
      0.0000000	      0.0000000	      0.0000000
      0.0000000	      0.0000000	      0.0000000
      0.0000000	      0.0000000	      0.0000000
      0.0000000	      0.0000000	      0.0000000
      0.0000000	      0.0000000	      0.0000000
      0.0000000	      0.0000000	      0.0000000
      0.0000000	      0.0000000	      0.0000000
      0.0000000	      0.0000000	      0.0000000
      0.0000000	      0.0000000	      0.0000000
      0.0000000	      0.0000000	      0.0000000
      0.0000000	      0.0000000	      0.0000000
      0.0000000	      0.0000000	      0.0000000
     -0.0010360	     -0.0014745	      0.0000000
     -0.0011202	     -0.0018277	      0.0000000
     -0.0007583	     -0.0018927	      0.0000000
     -0.0006913	     -0.0017697	      0.0000000
     -0.0006680	     -0.0016215	      0.0000000
     -0.0009532	     -0.0014589	      0.0000000
     -0.0013881	     -0.0013159	      0.0000000
     -0.0020631	     -0.0011900	      0.0000000
     -0.0028782	     -0.0010870	      0.0000000
     -0.0038588	     -0.0010026	      0.0000000
     -0.0049430	     -0.0009358	      0.0000000
     -0.0061340	     -0.0008824	      0.0000000
     -0.0073952	     -0.0008401	      0.0000000
     -0.0087241	     -0.0008057	      0.0000000
     -0.0101007	     -0.0007771	      0.0000000
     -0.0115229	     -0.0007521	      0.0000000
     -0.0129805	     -0.0007295	      0.0000000
     -0.0144730	     -0.0007079	      0.0000000
     -0.0159958	     -0.0006868	      0.0000000
     -0.0175490	     -0.0006658	      0.0000000
     -0.0191304	     -0.0006447	      0.0000000
     -0.0207399	     -0.0006238	      0.0000000
     -0.0223755	     -0.0006032	      0.0000000
     -0.0240359	     -0.0005836	      0.0000000
     -0.0257183	     -0.0005653	      0.0000000
     -0.0274196	     -0.0005490	      0.0000000
     -0.0291354	     -0.0005352	      0.0000000
     -0.0308606	     -0.0005247	      0.0000000
     -0.0325890	     -0.0005182	      0.0000000
     -0.0343134	     -0.0005161	      0.0000000
     -0.0360258	     -0.0005192	      0.0000000
     -0.0377172	     -0.0005280	      0.0000000
     -0.0393777	     -0.0005431	      0.0000000
     -0.0409966	     -0.0005651	      0.0000000
     -0.0425627	     -0.0005943	      0.0000000
     -0.0440637	     -0.0006313	      0.0000000
     -0.0454873	     -0.0006763	      0.0000000
     -0.0468203	     -0.0007298	      0.0000000
     -0.0480493	     -0.0007918	      0.0000000
     -0.0491608	     -0.0008626	      0.0000000
     -0.0501412	     -0.0009422	      0.0000000
     -0.0509767	     -0.0010306	      0.0000000
     -0.0516541	     -0.0011277	      0.0000000
     -0.0521601	     -0.0012335	      0.0000000
     -0.0524820	     -0.0013474	      0.0000000
     -0.0526078	     -0.0014693	      0.0000000
     -0.0525263	     -0.0015982	      0.0000000
     -0.0522276	     -0.0017335	      0.0000000
     -0.0517033	     -0.0018742	      0.0000000
     -0.0509465	     -0.0020192	      0.0000000
     -0.0499522	     -0.0021673	      0.0000000
     -0.0487173	     -0.0023169	      0.0000000
     -0.0472412	     -0.0024668	      0.0000000
     -0.0455254	     -0.0026151	      0.0000000
     -0.0435743	     -0.0027602	      0.0000000
     -0.0413947	     -0.0029001	      0.0000000
     -0.0389964	     -0.0030331	      0.0000000
     -0.0363922	     -0.0031572	      0.0000000
     -0.0335976	     -0.0032704	      0.0000000
     -0.0306310	     -0.0033709	      0.0000000
     -0.0275139	     -0.0034568	      0.0000000
     -0.0242699	     -0.0035264	      0.0000000
     -0.0209254	     -0.0035783	      0.0000000
     -0.0175087	     -0.0036112	      0.0000000
     -0.0140500	     -0.0036241	      0.0000000
     -0.0105806	     -0.0036163	      0.0000000
     -0.0071327	     -0.0035874	      0.0000000
     -0.0037388	     -0.0035375	      0.0000000
     -0.0004313	     -0.0034671	      0.0000000
      0.0027586	     -0.0033769	      0.0000000
      0.0058006	     -0.0032682	      0.0000000
      0.0086669	     -0.0031423	      0.0000000
      0.0113316	     -0.0030011	      0.0000000
      0.0137717	     -0.0028464	      0.0000000
      0.0159672	     -0.0026805	      0.0000000
      0.0179017	     -0.0025056	      0.0000000
      0.0195618	     -0.0023242	      0.0000000
      0.0209384	     -0.0021387	      0.0000000
      0.0220253	     -0.0019514	      0.0000000
      0.0228208	     -0.0017647	      0.0000000
      0.0233254	     -0.0015804	      0.0000000
      0.0235442	     -0.0014008	      0.0000000
      0.0234835	     -0.0012274	      0.0000000
      0.0231549	     -0.0010620	      0.0000000
      0.0225688	     -0.0009057	      0.0000000
      0.0217429	     -0.0007599	      0.0000000
      0.0206903	     -0.0006253	      0.0000000
      0.0194346	     -0.0005036	      0.0000000
      0.0179908	     -0.0003956	      0.0000000
      0.0163915	     -0.0003045	      0.0000000
      0.0146545	     -0.0002315	      0.0000000
      0.0128258	     -0.0001825	      0.0000000
      0.0109282	     -0.0001594	      0.0000000
      0.0090271	     -0.0001735	      0.0000000
      0.0071552	     -0.0002257	      0.0000000
      0.0054005	     -0.0003360	      0.0000000
      0.0038116	     -0.0004901	      0.0000000
      0.0024737	     -0.0007090	      0.0000000
      0.0014450	     -0.0008738	      0.0000000
      0.0006343	     -0.0008952	      0.0000000
      0.0000000	      0.0000000	      0.0000000
      0.0000000	      0.0000000	      0.0000000
     -0.0012625	     -0.0021888	      0.0000000
     -0.0015735	     -0.0028141	      0.0000000
     -0.0015500	     -0.0029037	      0.0000000
     -0.0018437	     -0.0026109	      0.0000000
     -0.0022719	     -0.0022254	      0.0000000
     -0.0031243	     -0.0017860	      0.0000000
     -0.0042519	     -0.0013780	      0.0000000
     -0.0057531	     -0.0010046	      0.0000000
     -0.0075141	     -0.0006879	      0.0000000
     -0.0095537	     -0.0004201	      0.0000000
     -0.0117913	     -0.0002022	      0.0000000
     -0.0142190	     -0.0000240	      0.0000000
     -0.0167846	      0.0001195	      0.0000000
     -0.0194759	      0.0002375	      0.0000000
     -0.0222617	      0.0003354	      0.0000000
     -0.0251330	      0.0004197	      0.0000000
     -0.0280730	      0.0004944	      0.0000000
     -0.0310766	      0.0005632	      0.0000000
     -0.0341351	      0.0006281	      0.0000000
     -0.0372456	      0.0006905	      0.0000000
     -0.0404031	      0.0007509	      0.0000000
     -0.0436048	      0.0008090	      0.0000000
     -0.0468459	      0.0008639	      0.0000000
     -0.0501221	      0.0009145	      0.0000000
     -0.0534269	      0.0009592	      0.0000000
     -0.0567532	      0.0009962	      0.0000000
     -0.0600917	      0.0010236	      0.0000000
     -0.0634321	      0.0010394	      0.0000000
     -0.0667619	      0.0010418	      0.0000000
     -0.0700672	      0.0010286	      0.0000000
     -0.0733325	      0.0009981	      0.0000000
     -0.0765406	      0.0009484	      0.0000000
     -0.0796730	      0.0008779	      0.0000000
     -0.0827099	      0.0007849	      0.0000000
     -0.0856302	      0.0006682	      0.0000000
     -0.0884119	      0.0005264	      0.0000000
     -0.0910322	      0.0003586	      0.0000000
     -0.0934675	      0.0001639	      0.0000000
     -0.0956939	     -0.0000581	      0.0000000
     -0.0976873	     -0.0003079	      0.0000000
     -0.0994235	     -0.0005853	      0.0000000
     -0.1008787	     -0.0008902	      0.0000000
     -0.1020296	     -0.0012221	      0.0000000
     -0.1028538	     -0.0015802	      0.0000000
     -0.1033297	     -0.0019635	      0.0000000
     -0.1034372	     -0.0023702	      0.0000000
     -0.1031581	     -0.0027983	      0.0000000
     -0.1024764	     -0.0032449	      0.0000000
     -0.1013787	     -0.0037070	      0.0000000
     -0.0998544	     -0.0041811	      0.0000000
     -0.0978964	     -0.0046631	      0.0000000
     -0.0955012	     -0.0051489	      0.0000000
     -0.0926690	     -0.0056336	      0.0000000
     -0.0894042	     -0.0061121	      0.0000000
     -0.0857159	     -0.0065791	      0.0000000
     -0.0816176	     -0.0070289	      0.0000000
     -0.0771277	     -0.0074557	      0.0000000
     -0.0722696	     -0.0078536	      0.0000000
     -0.0670714	     -0.0082168	      0.0000000
     -0.0615663	     -0.0085394	      0.0000000
     -0.0557921	     -0.0088161	      0.0000000
     -0.0497909	     -0.0090417	      0.0000000
     -0.0436089	     -0.0092118	      0.0000000
     -0.0372961	     -0.0093224	      0.0000000
     -0.0309050	     -0.0093705	      0.0000000
     -0.0244907	     -0.0093541	      0.0000000
     -0.0181097	     -0.0092718	      0.0000000
     -0.0118191	     -0.0091238	      0.0000000
     -0.0056758	     -0.0089112	      0.0000000
      0.0002646	     -0.0086362	      0.0000000
      0.0059485	     -0.0083024	      0.0000000
      0.0113257	     -0.0079141	      0.0000000
      0.0163496	     -0.0074763	      0.0000000
      0.0209784	     -0.0069950	      0.0000000
      0.0251752	     -0.0064767	      0.0000000
      0.0289089	     -0.0059285	      0.0000000
      0.0321542	     -0.0053576	      0.0000000
      0.0348924	     -0.0047713	      0.0000000
      0.0371104	     -0.0041771	      0.0000000
      0.0388023	     -0.0035819	      0.0000000
      0.0399670	     -0.0029925	      0.0000000
      0.0406108	     -0.0024152	      0.0000000
      0.0407432	     -0.0018557	      0.0000000
      0.0403821	     -0.0013195	      0.0000000
      0.0395459	     -0.0008112	      0.0000000
      0.0382634	     -0.0003355	      0.0000000
      0.0365596	      0.0001044	      0.0000000
      0.0344744	      0.0005027	      0.0000000
      0.0320394	      0.0008552	      0.0000000
      0.0293093	      0.0011529	      0.0000000
      0.0263232	      0.0013903	      0.0000000
      0.0231567	      0.0015524	      0.0000000
      0.0198583	      0.0016320	      0.0000000
      0.0165331	      0.0016041	      0.0000000
      0.0132399	      0.0014648	      0.0000000
      0.0101173	      0.0011758	      0.0000000
      0.0072272	      0.0007658	      0.0000000
      0.0047237	      0.0001996	      0.0000000
      0.0026379	     -0.0003249	      0.0000000
      0.0010744	     -0.0007162	      0.0000000
      0.0000000	      0.0000000	      0.0000000
      0.0000000	      0.0000000	      0.0000000
     -0.0014194	     -0.0024350	      0.0000000
     -0.0020352	     -0.0032669	      0.0000000
     -0.0024904	     -0.0033011	      0.0000000
     -0.0033460	     -0.0027631	      0.0000000
     -0.0044496	     -0.0020286	      0.0000000
     -0.0060703	     -0.0011867	      0.0000000
     -0.0080736	     -0.0003816	      0.0000000
     -0.0105470	      0.0003675	      0.0000000
     -0.0133760	      0.0010156	      0.0000000
     -0.0165674	      0.0015717	      0.0000000
     -0.0200332	      0.0020307	      0.0000000
     -0.0237541	      0.0024103	      0.0000000
     -0.0276689	      0.0027190	      0.0000000
     -0.0317562	      0.0029737	      0.0000000
     -0.0359773	      0.0031848	      0.0000000
     -0.0403162	      0.0033650	      0.0000000
     -0.0447506	      0.0035222	      0.0000000
     -0.0492703	      0.0036640	      0.0000000
     -0.0538625	      0.0037943	      0.0000000
     -0.0585203	      0.0039163	      0.0000000
     -0.0632351	      0.0040308	      0.0000000
     -0.0680006	      0.0041375	      0.0000000
     -0.0728085	      0.0042348	      0.0000000
     -0.0776503	      0.0043204	      0.0000000
     -0.0825156	      0.0043911	      0.0000000
     -0.0873924	      0.0044434	      0.0000000
     -0.0922667	      0.0044735	      0.0000000
     -0.0971223	      0.0044774	      0.0000000
     -0.1019408	      0.0044512	      0.0000000
     -0.1067020	      0.0043909	      0.0000000
     -0.1113832	      0.0042928	      0.0000000
     -0.1159602	      0.0041533	      0.0000000
     -0.1204067	      0.0039690	      0.0000000
     -0.1246952	      0.0037370	      0.0000000
     -0.1287964	      0.0034547	      0.0000000
     -0.1326802	      0.0031197	      0.0000000
     -0.1363153	      0.0027302	      0.0000000
     -0.1396701	      0.0022848	      0.0000000
     -0.1427125	      0.0017827	      0.0000000
     -0.1454101	      0.0012235	      0.0000000
     -0.1477312	      0.0006075	      0.0000000
     -0.1496444	     -0.0000645	      0.0000000
     -0.1511195	     -0.0007909	      0.0000000
     -0.1521277	     -0.0015699	      0.0000000
     -0.1526417	     -0.0023989	      0.0000000
     -0.1526363	     -0.0032741	      0.0000000
     -0.1520890	     -0.0041906	      0.0000000
     -0.1509806	     -0.0051429	      0.0000000
     -0.1492950	     -0.0061244	      0.0000000
     -0.1470204	     -0.0071279	      0.0000000
     -0.1441493	     -0.0081450	      0.0000000
     -0.1406787	     -0.0091671	      0.0000000
     -0.1366109	     -0.0101844	      0.0000000
     -0.1319536	     -0.0111867	      0.0000000
     -0.1267202	     -0.0121631	      0.0000000
     -0.1209301	     -0.0131023	      0.0000000
     -0.1146089	     -0.0139926	      0.0000000
     -0.1077885	     -0.0148223	      0.0000000
     -0.1005070	     -0.0155797	      0.0000000
     -0.0928090	     -0.0162532	      0.0000000
     -0.0847449	     -0.0168321	      0.0000000
     -0.0763709	     -0.0173061	      0.0000000
     -0.0677484	     -0.0176663	      0.0000000
     -0.0589434	     -0.0179047	      0.0000000
     -0.0500259	     -0.0180153	      0.0000000
     -0.0410689	     -0.0179936	      0.0000000
     -0.0321475	     -0.0178372	      0.0000000
     -0.0233380	     -0.0175457	      0.0000000
     -0.0147163	     -0.0171210	      0.0000000
     -0.0063574	     -0.0165674	      0.0000000
      0.0016663	     -0.0158914	      0.0000000
      0.0092860	     -0.0151015	      0.0000000
      0.0164378	     -0.0142078	      0.0000000
      0.0230638	     -0.0132220	      0.0000000
      0.0291124	     -0.0121571	      0.0000000
      0.0345395	     -0.0110270	      0.0000000
      0.0393083	     -0.0098464	      0.0000000
      0.0433908	     -0.0086302	      0.0000000
      0.0467665	     -0.0073932	      0.0000000
      0.0494240	     -0.0061499	      0.0000000
      0.0513590	     -0.0049143	      0.0000000
      0.0525767	     -0.0036998	      0.0000000
      0.0530876	     -0.0025185	      0.0000000
      0.0529129	     -0.0013823	      0.0000000
      0.0520759	     -0.0003017	      0.0000000
      0.0506132	      0.0007130	      0.0000000
      0.0485591	      0.0016532	      0.0000000
      0.0459660	      0.0025067	      0.0000000
      0.0428786	      0.0032628	      0.0000000
      0.0393688	      0.0039046	      0.0000000
      0.0354922	      0.0044182	      0.0000000
      0.0313474	      0.0047776	      0.0000000
      0.0270022	      0.0049654	      0.0000000
      0.0225908	      0.0049424	      0.0000000
      0.0181908	      0.0046966	      0.0000000
      0.0139794	      0.0041766	      0.0000000
      0.0100289	      0.0034161	      0.0000000
      0.0065580	      0.0023819	      0.0000000
      0.0035948	      0.0012933	      0.0000000
      0.0014184	      0.0002445	      0.0000000
      0.0000000	      0.0000000	      0.0000000
      0.0000000	      0.0000000	      0.0000000
     -0.0015404	     -0.0026347	      0.0000000
     -0.0025071	     -0.0034243	      0.0000000
     -0.0035571	     -0.0032324	      0.0000000
     -0.0051267	     -0.0023259	      0.0000000
     -0.0070788	     -0.0011480	      0.0000000
     -0.0096278	      0.0001751	      0.0000000
     -0.0126516	      0.0014512	      0.0000000
     -0.0162152	      0.0026440	      0.0000000
     -0.0202082	      0.0036881	      0.0000000
     -0.0246242	      0.0045910	      0.0000000
     -0.0293735	      0.0053445	      0.0000000
     -0.0344267	      0.0059722	      0.0000000
     -0.0397184	      0.0064866	      0.0000000
     -0.0452189	      0.0069124	      0.0000000
     -0.0508847	      0.0072657	      0.0000000
     -0.0566935	      0.0075654	      0.0000000
     -0.0626181	      0.0078240	      0.0000000
     -0.0686433	      0.0080530	      0.0000000
     -0.0747519	      0.0082589	      0.0000000
     -0.0809327	      0.0084468	      0.0000000
     -0.0871730	      0.0086177	      0.0000000
     -0.0934621	      0.0087715	      0.0000000
     -0.0997875	      0.0089056	      0.0000000
     -0.1061363	      0.0090162	      0.0000000
     -0.1124932	      0.0090986	      0.0000000
     -0.1188413	      0.0091471	      0.0000000
     -0.1251613	      0.0091556	      0.0000000
     -0.1314316	      0.0091181	      0.0000000
     -0.1376279	      0.0090281	      0.0000000
     -0.1437239	      0.0088796	      0.0000000
     -0.1496909	      0.0086666	      0.0000000
     -0.1554980	      0.0083837	      0.0000000
     -0.1611126	      0.0080258	      0.0000000
     -0.1665006	      0.0075885	      0.0000000
     -0.1716261	      0.0070677	      0.0000000
     -0.1764527	      0.0064601	      0.0000000
     -0.1809426	      0.0057633	      0.0000000
     -0.1850581	      0.0049755	      0.0000000
     -0.1887611	      0.0040956	      0.0000000
     -0.1920137	      0.0031236	      0.0000000
     -0.1947787	      0.0020604	      0.0000000
     -0.1970198	      0.0009078	      0.0000000
     -0.1987025	     -0.0003312	      0.0000000
     -0.1997937	     -0.0016527	      0.0000000
     -0.2002630	     -0.0030522	      0.0000000
     -0.2000827	     -0.0045230	      0.0000000
     -0.1992283	     -0.0060571	      0.0000000
     -0.1976791	     -0.0076453	      0.0000000
     -0.1954185	     -0.0092768	      0.0000000
     -0.1924346	     -0.0109399	      0.0000000
     -0.1887206	     -0.0126214	      0.0000000
     -0.1842749	     -0.0143072	      0.0000000
     -0.1791019	     -0.0159818	      0.0000000
     -0.1732124	     -0.0176291	      0.0000000
     -0.1666234	     -0.0192317	      0.0000000
     -0.1593591	     -0.0207718	      0.0000000
     -0.1514505	     -0.0222310	      0.0000000
     -0.1429361	     -0.0235908	      0.0000000
     -0.1338613	     -0.0248327	      0.0000000
     -0.1242790	     -0.0259385	      0.0000000
     -0.1142489	     -0.0268911	      0.0000000
     -0.1038376	     -0.0276743	      0.0000000
     -0.0931175	     -0.0282738	      0.0000000
     -0.0821668	     -0.0286770	      0.0000000
     -0.0710684	     -0.0288741	      0.0000000
     -0.0599089	     -0.0288575	      0.0000000
     -0.0487777	     -0.0286232	      0.0000000
     -0.0377657	     -0.0281701	      0.0000000
     -0.0269644	     -0.0275006	      0.0000000
     -0.0164637	     -0.0266209	      0.0000000
     -0.0063518	     -0.0255404	      0.0000000
      0.0032874	     -0.0242721	      0.0000000
      0.0123746	     -0.0228321	      0.0000000
      0.0208379	     -0.0212387	      0.0000000
      0.0286126	     -0.0195123	      0.0000000
      0.0356423	     -0.0176749	      0.0000000
      0.0418798	     -0.0157497	      0.0000000
      0.0472874	     -0.0137607	      0.0000000
      0.0518370	     -0.0117318	      0.0000000
      0.0555112	     -0.0096866	      0.0000000
      0.0583012	     -0.0076480	      0.0000000
      0.0602098	     -0.0056379	      0.0000000
      0.0612466	     -0.0036770	      0.0000000
      0.0614340	     -0.0017852	      0.0000000
      0.0607985	      0.0000193	      0.0000000
      0.0593815	      0.0017185	      0.0000000
      0.0572249	      0.0032963	      0.0000000
      0.0543902	      0.0047326	      0.0000000
      0.0509322	      0.0060087	      0.0000000
      0.0469359	      0.0070981	      0.0000000
      0.0424697	      0.0079769	      0.0000000
      0.0376496	      0.0086072	      0.0000000
      0.0325565	      0.0089603	      0.0000000
      0.0273478	      0.0089827	      0.0000000
      0.0221110	      0.0086519	      0.0000000
      0.0170570	      0.0079035	      0.0000000
      0.0122614	      0.0067654	      0.0000000
      0.0080094	      0.0051947	      0.0000000
      0.0043314	      0.0033961	      0.0000000
      0.0016657	      0.0014413	      0.0000000
      0.0000000	      0.0000000	      0.0000000
      0.0000000	      0.0000000	      0.0000000
     -0.0016987	     -0.0024587	      0.0000000
     -0.0030605	     -0.0029658	      0.0000000
     -0.0047570	     -0.0023626	      0.0000000
     -0.0071185	     -0.0009504	      0.0000000
     -0.0100090	      0.0007854	      0.0000000
     -0.0135839	      0.0026841	      0.0000000
     -0.0177231	      0.0045154	      0.0000000
     -0.0224625	      0.0062261	      0.0000000
     -0.0276930	      0.0077330	      0.0000000
     -0.0333931	      0.0090421	      0.0000000
     -0.0394720	      0.0101424	      0.0000000
     -0.0458906	      0.0110635	      0.0000000
     -0.0525808	      0.0118224	      0.0000000
     -0.0595059	      0.0124518	      0.0000000
     -0.0666189	      0.0129737	      0.0000000
     -0.0738919	      0.0134141	      0.0000000
     -0.0812937	      0.0137901	      0.0000000
     -0.0888044	      0.0141177	      0.0000000
     -0.0964028	      0.0144061	      0.0000000
     -0.1040730	      0.0146620	      0.0000000
     -0.1117982	      0.0148872	      0.0000000
     -0.1195630	      0.0150814	      0.0000000
     -0.1273505	      0.0152408	      0.0000000
     -0.1351429	      0.0153603	      0.0000000
     -0.1429201	      0.0154328	      0.0000000
     -0.1506601	      0.0154507	      0.0000000
     -0.1583384	      0.0154053	      0.0000000
     -0.1659279	      0.0152880	      0.0000000
     -0.1733990	      0.0150898	      0.0000000
     -0.1807199	      0.0148024	      0.0000000
     -0.1878563	      0.0144176	      0.0000000
     -0.1947720	      0.0139279	      0.0000000
     -0.2014290	      0.0133266	      0.0000000
     -0.2077879	      0.0126075	      0.0000000
     -0.2138080	      0.0117656	      0.0000000
     -0.2194477	      0.0107968	      0.0000000
     -0.2246652	      0.0096979	      0.0000000
     -0.2294181	      0.0084671	      0.0000000
     -0.2336646	      0.0071034	      0.0000000
     -0.2373631	      0.0056076	      0.0000000
     -0.2404732	      0.0039814	      0.0000000
     -0.2429559	      0.0022281	      0.0000000
     -0.2447740	      0.0003527	      0.0000000
     -0.2458924	     -0.0016388	      0.0000000
     -0.2462794	     -0.0037385	      0.0000000
     -0.2459062	     -0.0059367	      0.0000000
     -0.2447479	     -0.0082215	      0.0000000
     -0.2427836	     -0.0105793	      0.0000000
     -0.2399970	     -0.0129949	      0.0000000
     -0.2363766	     -0.0154512	      0.0000000
     -0.2319165	     -0.0179296	      0.0000000
     -0.2266165	     -0.0204098	      0.0000000
     -0.2204826	     -0.0228702	      0.0000000
     -0.2135274	     -0.0252876	      0.0000000
     -0.2057707	     -0.0276378	      0.0000000
     -0.1972395	     -0.0298954	      0.0000000
     -0.1879685	     -0.0320345	      0.0000000
     -0.1780003	     -0.0340288	      0.0000000
     -0.1673853	     -0.0358521	      0.0000000
     -0.1561820	     -0.0374788	      0.0000000
     -0.1444565	     -0.0388844	      0.0000000
     -0.1322825	     -0.0400458	      0.0000000
     -0.1197406	     -0.0409422	      0.0000000
     -0.1069178	     -0.0415558	      0.0000000
     -0.0939069	     -0.0418716	      0.0000000
     -0.0808049	     -0.0418789	      0.0000000
     -0.0677128	     -0.0415708	      0.0000000
     -0.0547334	     -0.0409451	      0.0000000
     -0.0419708	     -0.0400046	      0.0000000
     -0.0295281	     -0.0387568	      0.0000000
     -0.0175068	     -0.0372144	      0.0000000
     -0.0060043	     -0.0353947	      0.0000000
      0.0048865	     -0.0333200	      0.0000000
      0.0150800	     -0.0310165	      0.0000000
      0.0244988	     -0.0285128	      0.0000000
      0.0330752	     -0.0258404	      0.0000000
      0.0407510	     -0.0230325	      0.0000000
      0.0474794	     -0.0201235	      0.0000000
      0.0532239	     -0.0171480	      0.0000000
      0.0579606	     -0.0141406	      0.0000000
      0.0616757	     -0.0111347	      0.0000000
      0.0643684	     -0.0081629	      0.0000000
      0.0660467	     -0.0052561	      0.0000000
      0.0667328	     -0.0024442	      0.0000000
      0.0664547	      0.0002448	      0.0000000
      0.0652575	      0.0027831	      0.0000000
      0.0631881	      0.0051451	      0.0000000
      0.0603151	      0.0073014	      0.0000000
      0.0567008	      0.0092232	      0.0000000
      0.0524407	      0.0108732	      0.0000000
      0.0476125	      0.0122157	      0.0000000
      0.0423461	      0.0131998	      0.0000000
      0.0367321	      0.0137834	      0.0000000
      0.0309471	      0.0138987	      0.0000000
      0.0250866	      0.0135089	      0.0000000
      0.0193919	      0.0125367	      0.0000000
      0.0139450	      0.0109917	      0.0000000
      0.0090904	      0.0088189	      0.0000000
      0.0048674	      0.0061733	      0.0000000
      0.0018378	      0.0030846	      0.0000000
      0.0000000	      0.0000000	      0.0000000
      0.0000000	      0.0000000	      0.0000000
     -0.0018772	     -0.0020784	      0.0000000
     -0.0036662	     -0.0020500	      0.0000000
     -0.0060545	     -0.0008306	      0.0000000
     -0.0092670	      0.0012464	      0.0000000
     -0.0131649	      0.0036569	      0.0000000
     -0.0178362	      0.0062170	      0.0000000
     -0.0231590	      0.0086690	      0.0000000