# vtk DataFile Version 2.0
vw
ASCII
DATASET STRUCTURED_POINTS
DIMENSIONS  102  102    1
ORIGIN      0.0000000      0.0000000      0.0000000
SPACING      0.0100000      0.0100000      0.0100000
POINT_DATA  10404
VECTORS velocity float
      0.0000000	      0.0000000	      0.0000000
      0.0000000	      0.0000000	      0.0000000
      0.0000000	      0.0000000	      0.0000000
      0.0000000	      0.0000000	      0.0000000
      0.0000000	      0.0000000	      0.0000000
      0.0000000	      0.0000000	      0.0000000
      0.0000000	      0.0000000	      0.0000000
      0.0000000	      0.0000000	      0.0000000
      0.0000000	      0.0000000	      0.0000000
      0.0000000	      0.0000000	      0.0000000
      0.0000000	      0.0000000	      0.0000000
      0.0000000	      0.0000000	      0.0000000
      0.0000000	      0.0000000	      0.0000000
      0.0000000	      0.0000000	      0.0000000
      0.0000000	      0.0000000	      0.0000000
      0.0000000	      0.0000000	      0.0000000
      0.0000000	      0.0000000	      0.0000000
      0.0000000	      0.0000000	      0.0000000
      0.0000000	      0.0000000	      0.0000000
      0.0000000	      0.0000000	      0.0000000
      0.0000000	      0.0000000	      0.0000000
      0.0000000	      0.0000000	      0.0000000
      0.0000000	      0.0000000	      0.0000000
      0.0000000	      0.0000000	      0.0000000
      0.0000000	      0.0000000	      0.0000000
      0.0000000	      0.0000000	      0.0000000
      0.0000000	      0.0000000	      0.0000000
      0.0000000	      0.0000000	      0.0000000
      0.0000000	      0.0000000	      0.0000000
      0.0000000	      0.0000000	      0.0000000
      0.0000000	      0.0000000	      0.0000000
      0.0000000	      0.0000000	      0.0000000
      0.0000000	      0.0000000	      0.0000000
      0.0000000	      0.0000000	      0.0000000
      0.0000000	      0.0000000	      0.0000000
      0.0000000	      0.0000000	      0.0000000
      0.0000000	      0.0000000	      0.0000000
      0.0000000	      0.0000000	      0.0000000
      0.0000000	      0.0000000	      0.0000000
      0.0000000	      0.0000000	      0.0000000
      0.0000000	      0.0000000	      0.0000000
      0.0000000	      0.0000000	      0.0000000
      0.0000000	      0.0000000	      0.0000000
      0.0000000	      0.0000000	      0.0000000
      0.0000000	      0.0000000	      0.0000000
      0.0000000	      0.0000000	      0.0000000
      0.0000000	      0.0000000	      0.0000000
      0.0000000	      0.0000000	      0.0000000
      0.0000000	      0.0000000	      0.0000000
      0.0000000	      0.0000000	      0.0000000
      0.0000000	      0.0000000	      0.0000000
      0.0000000	      0.0000000	      0.0000000
      0.0000000	      0.0000000	      0.0000000
      0.0000000	      0.0000000	      0.0000000
      0.0000000	      0.0000000	      0.0000000
      0.0000000	      0.0000000	      0.0000000
      0.0000000	      0.0000000	      0.0000000
      0.0000000	      0.0000000	      0.0000000
      0.0000000	      0.0000000	      0.0000000
      0.0000000	      0.0000000	      0.0000000
      0.0000000	      0.0000000	      0.0000000
      0.0000000	      0.0000000	      0.0000000
      0.0000000	      0.0000000	      0.0000000
      0.0000000	      0.0000000	      0.0000000
      0.0000000	      0.0000000	      0.0000000
      0.0000000	      0.0000000	      0.0000000
      0.0000000	      0.0000000	      0.0000000
      0.0000000	      0.0000000	      0.0000000
      0.0000000	      0.0000000	      0.0000000
      0.0000000	      0.0000000	      0.0000000
      0.0000000	      0.0000000	      0.0000000
      0.0000000	      0.0000000	      0.0000000
      0.0000000	      0.0000000	      0.0000000
      0.0000000	      0.0000000	      0.0000000
      0.0000000	      0.0000000	      0.0000000
      0.0000000	      0.0000000	      0.0000000
      0.0000000	      0.0000000	      0.0000000
      0.0000000	      0.0000000	      0.0000000
      0.0000000	      0.0000000	      0.0000000
      0.0000000	      0.0000000	      0.0000000
      0.0000000	      0.0000000	      0.0000000
      0.0000000	      0.0000000	      0.0000000
      0.0000000	      0.0000000	      0.0000000
      0.0000000	      0.0000000	      0.0000000
      0.0000000	      0.0000000	      0.0000000
      0.0000000	      0.0000000	      0.0000000
      0.0000000	      0.0000000	      0.0000000
      0.0000000	      0.0000000	      0.0000000
      0.0000000	      0.0000000	      0.0000000
      0.0000000	      0.0000000	      0.0000000
      0.0000000	      0.0000000	      0.0000000
      0.0000000	      0.0000000	      0.0000000
      0.0000000	      0.0000000	      0.0000000
      0.0000000	      0.0000000	      0.0000000
      0.0000000	      0.0000000	      0.0000000
      0.0000000	      0.0000000	      0.0000000
      0.0000000	      0.0000000	      0.0000000
      0.0000000	      0.0000000	      0.0000000
      0.0000000	      0.0000000	      0.0000000
      0.0000000	      0.0000000	      0.0000000
      0.0000000	      0.0000000	      0.0000000
      0.0000000	      0.0000000	      0.0000000
      0.0000000	      0.0000000	      0.0000000
     -0.0016478	     -0.0021383	      0.0000000
     -0.0017299	     -0.0027754	      0.0000000
     -0.0009351	     -0.0030178	      0.0000000
     -0.0003637	     -0.0029889	      0.0000000
      0.0003581	     -0.0028933	      0.0000000
      0.0007771	     -0.0027514	      0.0000000
      0.0011109	     -0.0026064	      0.0000000
      0.0011665	     -0.0024633	      0.0000000
      0.0010752	     -0.0023315	      0.0000000
      0.0007563	     -0.0022114	      0.0000000
      0.0002902	     -0.0021037	      0.0000000
     -0.0003555	     -0.0020070	      0.0000000
     -0.0011326	     -0.0019193	      0.0000000
     -0.0020543	     -0.0018387	      0.0000000
     -0.0030935	     -0.0017629	      0.0000000
     -0.0042570	     -0.0016901	      0.0000000
     -0.0055315	     -0.0016186	      0.0000000
     -0.0069221	     -0.0015474	      0.0000000
     -0.0084237	     -0.0014754	      0.0000000
     -0.0100405	     -0.0014021	      0.0000000
     -0.0117714	     -0.0013275	      0.0000000
     -0.0136198	     -0.0012514	      0.0000000
     -0.0155856	     -0.0011743	      0.0000000
     -0.0176702	     -0.0010967	      0.0000000
     -0.0198727	     -0.0010192	      0.0000000
     -0.0221918	     -0.0009428	      0.0000000
     -0.0246242	     -0.0008682	      0.0000000
     -0.0271654	     -0.0007967	      0.0000000
     -0.0298088	     -0.0007294	      0.0000000
     -0.0325462	     -0.0006675	      0.0000000
     -0.0353670	     -0.0006124	      0.0000000
     -0.0382585	     -0.0005654	      0.0000000
     -0.0412057	     -0.0005280	      0.0000000
     -0.0441912	     -0.0005019	      0.0000000
     -0.0471949	     -0.0004886	      0.0000000
     -0.0501942	     -0.0004897	      0.0000000
     -0.0531640	     -0.0005071	      0.0000000
     -0.0560765	     -0.0005422	      0.0000000
     -0.0589014	     -0.0005969	      0.0000000
     -0.0616060	     -0.0006727	      0.0000000
     -0.0641554	     -0.0007710	      0.0000000
     -0.0665127	     -0.0008932	      0.0000000
     -0.0686394	     -0.0010403	      0.0000000
     -0.0704958	     -0.0012130	      0.0000000
     -0.0720420	     -0.0014116	      0.0000000
     -0.0732380	     -0.0016360	      0.0000000
     -0.0740449	     -0.0018852	      0.0000000
     -0.0744261	     -0.0021574	      0.0000000
     -0.0743484	     -0.0024506	      0.0000000
     -0.0737820	     -0.0027622	      0.0000000
     -0.0727018	     -0.0030892	      0.0000000
     -0.0710875	     -0.0034283	      0.0000000
     -0.0689246	     -0.0037754	      0.0000000
     -0.0662049	     -0.0041263	      0.0000000
     -0.0629277	     -0.0044758	      0.0000000
     -0.0590999	     -0.0048185	      0.0000000
     -0.0547370	     -0.0051485	      0.0000000
     -0.0498637	     -0.0054597	      0.0000000
     -0.0445136	     -0.0057458	      0.0000000
     -0.0387300	     -0.0060004	      0.0000000
     -0.0325650	     -0.0062176	      0.0000000
     -0.0260797	     -0.0063916	      0.0000000
     -0.0193431	     -0.0065173	      0.0000000
     -0.0124312	     -0.0065904	      0.0000000
     -0.0054260	     -0.0066077	      0.0000000
      0.0015866	     -0.0065669	      0.0000000
      0.0085178	     -0.0064675	      0.0000000
      0.0152786	     -0.0063101	      0.0000000
      0.0217816	     -0.0060963	      0.0000000
      0.0279428	     -0.0058299	      0.0000000
      0.0336835	     -0.0055152	      0.0000000
      0.0389331	     -0.0051584	      0.0000000
      0.0436294	     -0.0047664	      0.0000000
      0.0477216	     -0.0043469	      0.0000000
      0.0511700	     -0.0039084	      0.0000000
      0.0539478	     -0.0034594	      0.0000000
      0.0560404	     -0.0030086	      0.0000000
      0.0574470	     -0.0025643	      0.0000000
      0.0581773	     -0.0021343	      0.0000000
      0.0582547	     -0.0017257	      0.0000000
      0.0577102	     -0.0013444	      0.0000000
      0.0565867	     -0.0009953	      0.0000000
      0.0549296	     -0.0006800	      0.0000000
      0.0527912	     -0.0003989	      0.0000000
      0.0502194	     -0.0001521	      0.0000000
      0.0472729	      0.0000599	      0.0000000
      0.0439983	      0.0002379	      0.0000000
      0.0404595	      0.0003817	      0.0000000
      0.0366978	      0.0004930	      0.0000000
      0.0327840	      0.0005697	      0.0000000
      0.0287537	      0.0006127	      0.0000000
      0.0246938	      0.0006144	      0.0000000
      0.0206382	      0.0005737	      0.0000000
      0.0167052	      0.0004715	      0.0000000
      0.0129381	      0.0003066	      0.0000000
      0.0094999	      0.0000418	      0.0000000
      0.0064574	     -0.0002999	      0.0000000
      0.0039832	     -0.0007595	      0.0000000
      0.0021552	     -0.0011416	      0.0000000
      0.0008658	     -0.0013041	      0.0000000
      0.0000000	      0.0000000	      0.0000000
      0.0000000	      0.0000000	      0.0000000
     -0.0018876	     -0.0032541	      0.0000000
     -0.0020728	     -0.0045402	      0.0000000
     -0.0013930	     -0.0050962	      0.0000000
     -0.0008369	     -0.0051002	      0.0000000
     -0.0001291	     -0.0048939	      0.0000000
      0.0002117	     -0.0045405	      0.0000000
      0.0003765	     -0.0041472	      0.0000000
      0.0001307	     -0.0037366	      0.0000000
     -0.0003908	     -0.0033437	      0.0000000
     -0.0012827	     -0.0029732	      0.0000000
     -0.0024522	     -0.0026337	      0.0000000
     -0.0039322	     -0.0023219	      0.0000000
     -0.0056625	     -0.0020361	      0.0000000
     -0.0076530	     -0.0017703	      0.0000000
     -0.0098681	     -0.0015200	      0.0000000
     -0.0123117	     -0.0012794	      0.0000000
     -0.0149658	     -0.0010444	      0.0000000
     -0.0178342	     -0.0008111	      0.0000000
     -0.0209097	     -0.0005773	      0.0000000
     -0.0241968	     -0.0003411	      0.0000000
     -0.0276936	     -0.0001019	      0.0000000
     -0.0314036	      0.0001401	      0.0000000
     -0.0353262	      0.0003838	      0.0000000
     -0.0394619	      0.0006276	      0.0000000
     -0.0438078	      0.0008693	      0.0000000
     -0.0483600	      0.0011061	      0.0000000
     -0.0531111	      0.0013350	      0.0000000
     -0.0580514	      0.0015526	      0.0000000
     -0.0631672	      0.0017549	      0.0000000
     -0.0684418	      0.0019380	      0.0000000
     -0.0738541	      0.0020975	      0.0000000
     -0.0793794	      0.0022287	      0.0000000
     -0.0849882	      0.0023268	      0.0000000
     -0.0906471	      0.0023868	      0.0000000
     -0.0963176	      0.0024035	      0.0000000
     -0.1019570	      0.0023717	      0.0000000
     -0.1075180	      0.0022862	      0.0000000
     -0.1129486	      0.0021418	      0.0000000
     -0.1181929	      0.0019334	      0.0000000
     -0.1231907	      0.0016565	      0.0000000
     -0.1278785	      0.0013068	      0.0000000
     -0.1321899	      0.0008808	      0.0000000
     -0.1360561	      0.0003758	      0.0000000
     -0.1394071	     -0.0002098	      0.0000000
     -0.1421724	     -0.0008762	      0.0000000
     -0.1442828	     -0.0016221	      0.0000000
     -0.1456714	     -0.0024442	      0.0000000
     -0.1462758	     -0.0033368	      0.0000000
     -0.1460397	     -0.0042927	      0.0000000
     -0.1449140	     -0.0053037	      0.0000000
     -0.1428573	     -0.0063603	      0.0000000
     -0.1398375	     -0.0074515	      0.0000000
     -0.1358324	     -0.0085649	      0.0000000
     -0.1308312	     -0.0096868	      0.0000000
     -0.1248353	     -0.0108016	      0.0000000
     -0.1178598	     -0.0118928	      0.0000000
     -0.1099339	     -0.0129426	      0.0000000
     -0.1011019	     -0.0139325	      0.0000000
     -0.0914235	     -0.0148438	      0.0000000
     -0.0809735	     -0.0156576	      0.0000000
     -0.0698421	     -0.0163559	      0.0000000
     -0.0581337	     -0.0169218	      0.0000000
     -0.0459660	     -0.0173401	      0.0000000
     -0.0334683	     -0.0175980	      0.0000000
     -0.0207798	     -0.0176853	      0.0000000
     -0.0080473	     -0.0175953	      0.0000000
      0.0045780	     -0.0173251	      0.0000000
      0.0169425	     -0.0168759	      0.0000000
      0.0288947	     -0.0162530	      0.0000000
      0.0402883	     -0.0154655	      0.0000000
      0.0509851	     -0.0145269	      0.0000000
      0.0608583	     -0.0134539	      0.0000000
      0.0697956	     -0.0122669	      0.0000000
      0.0777016	     -0.0109884	      0.0000000
      0.0844992	     -0.0096431	      0.0000000
      0.0901326	     -0.0082563	      0.0000000
      0.0945658	     -0.0068540	      0.0000000
      0.0977858	     -0.0054615	      0.0000000
      0.0997987	     -0.0041026	      0.0000000
      0.1006328	     -0.0027996	      0.0000000
      0.1003318	     -0.0015714	      0.0000000
      0.0989595	     -0.0004337	      0.0000000
      0.0965875	      0.0006054	      0.0000000
      0.0933023	      0.0015415	      0.0000000
      0.0891879	      0.0023705	      0.0000000
      0.0843443	      0.0030901	      0.0000000
      0.0788587	      0.0037002	      0.0000000
      0.0728407	      0.0041994	      0.0000000
      0.0663750	      0.0045893	      0.0000000
      0.0595835	      0.0048643	      0.0000000
      0.0525473	      0.0050235	      0.0000000
      0.0454125	      0.0050490	      0.0000000
      0.0382608	      0.0049342	      0.0000000
      0.0312826	      0.0046386	      0.0000000
      0.0245663	      0.0041565	      0.0000000
      0.0183646	      0.0034171	      0.0000000
      0.0127655	      0.0024670	      0.0000000
      0.0080615	      0.0012352	      0.0000000
      0.0042824	      0.0000609	      0.0000000
      0.0016333	     -0.0009055	      0.0000000
      0.0000000	      0.0000000	      0.0000000
      0.0000000	      0.0000000	      0.0000000
     -0.0019736	     -0.0038753	      0.0000000
     -0.0023249	     -0.0058712	      0.0000000
     -0.0019151	     -0.0067727	      0.0000000
     -0.0016530	     -0.0068328	      0.0000000
     -0.0013031	     -0.0064724	      0.0000000
     -0.0013820	     -0.0058217	      0.0000000
     -0.0017266	     -0.0050645	      0.0000000
     -0.0025766	     -0.0042536	      0.0000000
     -0.0038076	     -0.0034619	      0.0000000
     -0.0055139	     -0.0027031	      0.0000000
     -0.0076028	     -0.0019994	      0.0000000
     -0.0101034	     -0.0013460	      0.0000000
     -0.0129518	     -0.0007427	      0.0000000
     -0.0161537	     -0.0001784	      0.0000000
     -0.0196697	      0.0003545	      0.0000000
     -0.0235006	      0.0008670	      0.0000000
     -0.0276259	      0.0013666	      0.0000000
     -0.0320475	      0.0018610	      0.0000000
     -0.0367572	      0.0023547	      0.0000000
     -0.0417585	      0.0028515	      0.0000000
     -0.0470489	      0.0033521	      0.0000000
     -0.0526311	      0.0038564	      0.0000000
     -0.0585032	      0.0043619	      0.0000000
     -0.0646645	      0.0048654	      0.0000000
     -0.0711095	      0.0053621	      0.0000000
     -0.0778314	      0.0058463	      0.0000000
     -0.0848183	      0.0063115	      0.0000000
     -0.0920551	      0.0067501	      0.0000000
     -0.0995213	      0.0071542	      0.0000000
     -0.1071918	      0.0075149	      0.0000000
     -0.1150357	      0.0078231	      0.0000000
     -0.1230166	      0.0080688	      0.0000000
     -0.1310922	      0.0082418	      0.0000000
     -0.1392138	      0.0083317	      0.0000000
     -0.1473269	      0.0083276	      0.0000000
     -0.1553705	      0.0082189	      0.0000000
     -0.1632778	      0.0079947	      0.0000000
     -0.1709761	      0.0076448	      0.0000000
     -0.1783873	      0.0071593	      0.0000000
     -0.1854286	      0.0065291	      0.0000000
     -0.1920128	      0.0057463	      0.0000000
     -0.1980494	      0.0048046	      0.0000000
     -0.2034458	      0.0036993	      0.0000000
     -0.2081082	      0.0024280	      0.0000000
     -0.2119432	      0.0009912	      0.0000000
     -0.2148593	     -0.0006072	      0.0000000
     -0.2167692	     -0.0023595	      0.0000000
     -0.2175914	     -0.0042534	      0.0000000
     -0.2172538	     -0.0062733	      0.0000000
     -0.2156939	     -0.0084018	      0.0000000
     -0.2128599	     -0.0106188	      0.0000000
     -0.2087123	     -0.0129019	      0.0000000
     -0.2032246	     -0.0152257	      0.0000000
     -0.1963851	     -0.0175620	      0.0000000
     -0.1881981	     -0.0198801	      0.0000000
     -0.1786852	     -0.0221466	      0.0000000
     -0.1678858	     -0.0243263	      0.0000000
     -0.1558587	     -0.0263828	      0.0000000
     -0.1426815	     -0.0282791	      0.0000000
     -0.1284516	     -0.0299785	      0.0000000
     -0.1132849	     -0.0314453	      0.0000000
     -0.0973160	     -0.0326465	      0.0000000
     -0.0806957	     -0.0335519	      0.0000000
     -0.0635905	     -0.0341358	      0.0000000
     -0.0461795	     -0.0343778	      0.0000000
     -0.0286520	     -0.0342634	      0.0000000
     -0.0112047	     -0.0337855	      0.0000000
      0.0059622	     -0.0329443	      0.0000000
      0.0226484	     -0.0317491	      0.0000000
      0.0386585	     -0.0302167	      0.0000000
      0.0538064	     -0.0283712	      0.0000000
      0.0679189	     -0.0262448	      0.0000000
      0.0808395	     -0.0238756	      0.0000000
      0.0924321	     -0.0213069	      0.0000000
      0.1025828	     -0.0185865	      0.0000000
      0.1112040	     -0.0157644	      0.0000000
      0.1182334	     -0.0128917	      0.0000000
      0.1236378	     -0.0100193	      0.0000000
      0.1274095	     -0.0071956	      0.0000000
      0.1295699	     -0.0044663	      0.0000000
      0.1301618	     -0.0018713	      0.0000000
      0.1292555	      0.0005548	      0.0000000
      0.1269359	      0.0027894	      0.0000000
      0.1233126	      0.0048179	      0.0000000
      0.1184935	      0.0066295	      0.0000000
      0.1126086	      0.0082163	      0.0000000
      0.1057764	      0.0095752	      0.0000000
      0.0981424	      0.0107012	      0.0000000
      0.0898276	      0.0115932	      0.0000000
      0.0809955	      0.0122404	      0.0000000
      0.0717663	      0.0126359	      0.0000000
      0.0623340	      0.0127504	      0.0000000
      0.0528198	      0.0125660	      0.0000000
      0.0434700	      0.0120215	      0.0000000
      0.0344072	      0.0110990	      0.0000000
      0.0259540	      0.0097043	      0.0000000
      0.0182145	      0.0078919	      0.0000000
      0.0115965	      0.0055897	      0.0000000
      0.0061171	      0.0031877	      0.0000000
      0.0022909	      0.0008481	      0.0000000
      0.0000000	      0.0000000	      0.0000000
      0.0000000	      0.0000000	      0.0000000
     -0.0019827	     -0.0046635	      0.0000000
     -0.0025373	     -0.0071405	      0.0000000
     -0.0025453	     -0.0082369	      0.0000000
     -0.0028022	     -0.0082444	      0.0000000
     -0.0030907	     -0.0076502	      0.0000000
     -0.0038767	     -0.0066340	      0.0000000
     -0.0050165	     -0.0054425	      0.0000000
     -0.0067340	     -0.0041599	      0.0000000
     -0.0089157	     -0.0028940	      0.0000000
     -0.0116498	     -0.0016709	      0.0000000
     -0.0148474	     -0.0005261	      0.0000000
     -0.0185336	      0.0005448	      0.0000000
     -0.0226447	      0.0015400	      0.0000000
     -0.0271826	      0.0024754	      0.0000000
     -0.0321074	      0.0033615	      0.0000000
     -0.0374173	      0.0042148	      0.0000000
     -0.0430911	      0.0050465	      0.0000000
     -0.0491295	      0.0058685	      0.0000000
     -0.0555236	      0.0066877	      0.0000000
     -0.0622761	      0.0075094	      0.0000000
     -0.0693838	      0.0083350	      0.0000000
     -0.0768485	      0.0091639	      0.0000000
     -0.0846671	      0.0099920	      0.0000000
     -0.0928369	      0.0108138	      0.0000000
     -0.1013502	      0.0116213	      0.0000000
     -0.1101967	      0.0124050	      0.0000000
     -0.1193605	      0.0131537	      0.0000000
     -0.1288211	      0.0138552	      0.0000000
     -0.1385514	      0.0144957	      0.0000000
     -0.1485184	      0.0150606	      0.0000000
     -0.1586821	      0.0155343	      0.0000000
     -0.1689955	      0.0159006	      0.0000000
     -0.1794041	      0.0161424	      0.0000000
     -0.1898460	      0.0162423	      0.0000000
     -0.2002517	      0.0161830	      0.0000000
     -0.2105445	      0.0159468	      0.0000000
     -0.2206404	      0.0155167	      0.0000000
     -0.2304489	      0.0148762	      0.0000000
     -0.2398733	      0.0140102	      0.0000000
     -0.2488116	      0.0129049	      0.0000000
     -0.2571574	      0.0115485	      0.0000000
     -0.2648012	      0.0099319	      0.0000000
     -0.2716313	      0.0080491	      0.0000000
     -0.2775358	      0.0058978	      0.0000000
     -0.2824039	      0.0034800	      0.0000000
     -0.2861280	      0.0008034	      0.0000000
     -0.2886059	     -0.0021187	      0.0000000
     -0.2897420	     -0.0052655	      0.0000000
     -0.2894523	     -0.0086106	      0.0000000
     -0.2876652	     -0.0121253	      0.0000000
     -0.2843216	     -0.0157770	      0.0000000
     -0.2793767	     -0.0195293	      0.0000000
     -0.2728008	     -0.0233418	      0.0000000
     -0.2645815	     -0.0271696	      0.0000000
     -0.2547244	     -0.0309642	      0.0000000
     -0.2432545	     -0.0346732	      0.0000000
     -0.2302176	     -0.0382417	      0.0000000
     -0.2156807	     -0.0416127	      0.0000000
     -0.1997328	     -0.0447286	      0.0000000
     -0.1824845	     -0.0475322	      0.0000000
     -0.1640683	     -0.0499683	      0.0000000
     -0.1446370	     -0.0519846	      0.0000000
     -0.1243633	     -0.0535341	      0.0000000
     -0.1034375	     -0.0545757	      0.0000000
     -0.0820655	     -0.0550761	      0.0000000
     -0.0604658	     -0.0550111	      0.0000000
     -0.0388668	     -0.0543671	      0.0000000
     -0.0175030	     -0.0531417	      0.0000000
      0.0033892	     -0.0513452	      0.0000000
      0.0235751	     -0.0490007	      0.0000000
      0.0428284	     -0.0461447	      0.0000000
      0.0609350	     -0.0428235	      0.0000000
      0.0776992	     -0.0390944	      0.0000000
      0.0929457	     -0.0350235	      0.0000000
      0.1065237	     -0.0306838	      0.0000000
      0.1183115	     -0.0261527	      0.0000000
      0.1282160	     -0.0215108	      0.0000000
      0.1361778	     -0.0168385	      0.0000000
      0.1421671	     -0.0122137	      0.0000000
      0.1461890	     -0.0077105	      0.0000000
      0.1482754	     -0.0033956	      0.0000000
      0.1484924	      0.0006714	      0.0000000
      0.1469258	      0.0044450	      0.0000000
      0.1436982	      0.0078955	      0.0000000
      0.1389325	      0.0110013	      0.0000000
      0.1327788	      0.0137454	      0.0000000
      0.1253793	      0.0161175	      0.0000000
      0.1169073	      0.0181066	      0.0000000
      0.1075131	      0.0197060	      0.0000000
      0.0973944	      0.0208980	      0.0000000
      0.0867035	      0.0216680	      0.0000000
      0.0756741	      0.0219753	      0.0000000
      0.0644577	      0.0217897	      0.0000000
      0.0533471	      0.0210316	      0.0000000
      0.0424859	      0.0196683	      0.0000000
      0.0322591	      0.0175840	      0.0000000
      0.0227761	      0.0148228	      0.0000000
      0.0145641	      0.0112947	      0.0000000
      0.0076394	      0.0073695	      0.0000000
      0.0028143	      0.0031741	      0.0000000
      0.0000000	      0.0000000	      0.0000000
      0.0000000	      0.0000000	      0.0000000
     -0.0020619	     -0.0051394	      0.0000000
     -0.0029014	     -0.0078973	      0.0000000
     -0.0034212	     -0.0090290	      0.0000000
     -0.0043380	     -0.0088623	      0.0000000
     -0.0054342	     -0.0079294	      0.0000000
     -0.0071220	     -0.0064569	      0.0000000
     -0.0092603	     -0.0047444	      0.0000000
     -0.0120471	     -0.0029071	      0.0000000
     -0.0153727	     -0.0010853	      0.0000000
     -0.0193132	      0.0006819	      0.0000000
     -0.0237823	      0.0023459	      0.0000000
     -0.0287984	      0.0039099	      0.0000000
     -0.0342991	      0.0053705	      0.0000000
     -0.0402832	      0.0067484	      0.0000000
     -0.0467115	      0.0080576	      0.0000000
     -0.0535810	      0.0093206	      0.0000000
     -0.0608710	      0.0105525	      0.0000000
     -0.0685815	      0.0117695	      0.0000000
     -0.0767040	      0.0129810	      0.0000000
     -0.0852410	      0.0141942	      0.0000000
     -0.0941893	      0.0154106	      0.0000000
     -0.1035500	      0.0166288	      0.0000000
     -0.1133193	      0.0178429	      0.0000000
     -0.1234931	      0.0190443	      0.0000000
     -0.1340617	      0.0202211	      0.0000000
     -0.1450121	      0.0213590	      0.0000000
     -0.1563245	      0.0224414	      0.0000000
     -0.1679736	      0.0234496	      0.0000000
     -0.1799267	      0.0243632	      0.0000000
     -0.1921436	      0.0251603	      0.0000000
     -0.2045760	      0.0258176	      0.0000000
     -0.2171674	      0.0263108	      0.0000000
     -0.2298524	      0.0266148	      0.0000000
     -0.2425572	      0.0267042	      0.0000000
     -0.2551993	      0.0265533	      0.0000000
     -0.2676880	      0.0261368	      0.0000000
     -0.2799245	      0.0254303	      0.0000000
     -0.2918028	      0.0244106	      0.0000000
     -0.3032105	      0.0230565	      0.0000000
     -0.3140295	      0.0213493	      0.0000000
     -0.3241374	      0.0192733	      0.0000000
     -0.3334090	      0.0168171	      0.0000000
     -0.3417176	      0.0139735	      0.0000000
     -0.3489367	      0.0107413	      0.0000000
     -0.3549418	      0.0071251	      0.0000000
     -0.3596127	      0.0031373	      0.0000000
     -0.3628351	     -0.0012022	      0.0000000
     -0.3645036	     -0.0058627	      0.0000000
     -0.3645225	     -0.0108048	      0.0000000
     -0.3628127	     -0.0159860	      0.0000000
     -0.3593079	     -0.0213596	      0.0000000
     -0.3539578	     -0.0268732	      0.0000000
     -0.3467282	     -0.0324694	      0.0000000
     -0.3376035	     -0.0380847	      0.0000000
     -0.3265873	     -0.0436505	      0.0000000
     -0.3137041	     -0.0490933	      0.0000000
     -0.2990007	     -0.0543360	      0.0000000
     -0.2825467	     -0.0592989	      0.0000000
     -0.2644354	     -0.0639011	      0.0000000
     -0.2447835	     -0.0680627	      0.0000000
     -0.2237317	     -0.0717056	      0.0000000
     -0.2014432	     -0.0747564	      0.0000000
     -0.1781033	     -0.0771479	      0.0000000
     -0.1539175	     -0.0788209	      0.0000000
     -0.1291095	     -0.0797267	      0.0000000
     -0.1039183	     -0.0798285	      0.0000000
     -0.0785960	     -0.0791033	      0.0000000
     -0.0534030	     -0.0775435	      0.0000000
     -0.0286054	     -0.0751581	      0.0000000
     -0.0044690	     -0.0719742	      0.0000000
      0.0187428	     -0.0680363	      0.0000000
      0.0407788	     -0.0634077	      0.0000000
      0.0614025	     -0.0581654	      0.0000000
      0.0804000	     -0.0523974	      0.0000000
      0.0975822	     -0.0462056	      0.0000000
      0.1127900	     -0.0396978	      0.0000000
      0.1258950	     -0.0329869	      0.0000000
      0.1368065	     -0.0261878	      0.0000000
      0.1454665	     -0.0194131	      0.0000000
      0.1518573	     -0.0127708	      0.0000000
      0.1559921	     -0.0063606	      0.0000000
      0.1579256	     -0.0002728	      0.0000000
      0.1577349	      0.0054152	      0.0000000
      0.1555467	      0.0106500	      0.0000000
      0.1514928	      0.0153958	      0.0000000
      0.1457370	      0.0196216	      0.0000000
      0.1384385	      0.0233066	      0.0000000
      0.1297925	      0.0264303	      0.0000000
      0.1199724	      0.0289772	      0.0000000
      0.1092043	      0.0309210	      0.0000000
      0.0976667	      0.0322372	      0.0000000
      0.0856270	      0.0328730	      0.0000000
      0.0732619	      0.0327838	      0.0000000
      0.0609046	      0.0318736	      0.0000000
      0.0487181	      0.0300886	      0.0000000
      0.0371459	      0.0272943	      0.0000000
      0.0263089	      0.0235023	      0.0000000
      0.0168473	      0.0186001	      0.0000000
      0.0087900	      0.0128698	      0.0000000
      0.0031967	      0.0063652	      0.0000000
      0.0000000	      0.0000000	      0.0000000
      0.0000000	      0.0000000	      0.0000000
     -0.0021843	     -0.0055261	      0.0000000
     -0.0033762	     -0.0083304	      0.0000000
     -0.0045056	     -0.0092888	      0.0000000
     -0.0062086	     -0.0087713	      0.0000000
     -0.0082639	     -0.0073663	      0.0000000
     -0.0110186	     -0.0053351	      0.0000000
     -0.0143279	     -0.0030214	      0.0000000