# vtk DataFile Version 2.0
vw
ASCII
DATASET STRUCTURED_POINTS
DIMENSIONS  102  102    1
ORIGIN      0.0000000      0.0000000      0.0000000
SPACING      0.0100000      0.0100000      0.0100000
POINT_DATA  10404
VECTORS velocity float
      0.0000000	      0.0000000	      0.0000000
      0.0000000	      0.0000000	      0.0000000
      0.0000000	      0.0000000	      0.0000000
      0.0000000	      0.0000000	      0.0000000
      0.0000000	      0.0000000	      0.0000000
      0.0000000	      0.0000000	      0.0000000
      0.0000000	      0.0000000	      0.0000000
      0.0000000	      0.0000000	      0.0000000
      0.0000000	      0.0000000	      0.0000000
      0.0000000	      0.0000000	      0.0000000
      0.0000000	      0.0000000	      0.0000000
      0.0000000	      0.0000000	      0.0000000
      0.0000000	      0.0000000	      0.0000000
      0.0000000	      0.0000000	      0.0000000
      0.0000000	      0.0000000	      0.0000000
      0.0000000	      0.0000000	      0.0000000
      0.0000000	      0.0000000	      0.0000000
      0.0000000	      0.0000000	      0.0000000
      0.0000000	      0.0000000	      0.0000000
      0.0000000	      0.0000000	      0.0000000
      0.0000000	      0.0000000	      0.0000000
      0.0000000	      0.0000000	      0.0000000
      0.0000000	      0.0000000	      0.0000000
      0.0000000	      0.0000000	      0.0000000
      0.0000000	      0.0000000	      0.0000000
      0.0000000	      0.0000000	      0.0000000
      0.0000000	      0.0000000	      0.0000000
      0.0000000	      0.0000000	      0.0000000
      0.0000000	      0.0000000	      0.0000000
      0.0000000	      0.0000000	      0.0000000
      0.0000000	      0.0000000	      0.0000000
      0.0000000	      0.0000000	      0.0000000
      0.0000000	      0.0000000	      0.0000000
      0.0000000	      0.0000000	      0.0000000
      0.0000000	      0.0000000	      0.0000000
      0.0000000	      0.0000000	      0.0000000
      0.0000000	      0.0000000	      0.0000000
      0.0000000	      0.0000000	      0.0000000
      0.0000000	      0.0000000	      0.0000000
      0.0000000	      0.0000000	      0.0000000
      0.0000000	      0.0000000	      0.0000000
      0.0000000	      0.0000000	      0.0000000
      0.0000000	      0.0000000	      0.0000000
      0.0000000	      0.0000000	      0.0000000
      0.0000000	      0.0000000	      0.0000000
      0.0000000	      0.0000000	      0.0000000
      0.0000000	      0.0000000	      0.0000000
      0.0000000	      0.0000000	      0.0000000
      0.0000000	      0.0000000	      0.0000000
      0.0000000	      0.0000000	      0.0000000
      0.0000000	      0.0000000	      0.0000000
      0.0000000	      0.0000000	      0.0000000
      0.0000000	      0.0000000	      0.0000000
      0.0000000	      0.0000000	      0.0000000
      0.0000000	      0.0000000	      0.0000000
      0.0000000	      0.0000000	      0.0000000
      0.0000000	      0.0000000	      0.0000000
      0.0000000	      0.0000000	      0.0000000
      0.0000000	      0.0000000	      0.0000000
      0.0000000	      0.0000000	      0.0000000
      0.0000000	      0.0000000	      0.0000000
      0.0000000	      0.0000000	      0.0000000
      0.0000000	      0.0000000	      0.0000000
      0.0000000	      0.0000000	      0.0000000
      0.0000000	      0.0000000	      0.0000000
      0.0000000	      0.0000000	      0.0000000
      0.0000000	      0.0000000	      0.0000000
      0.0000000	      0.0000000	      0.0000000
      0.0000000	      0.0000000	      0.0000000
      0.0000000	      0.0000000	      0.0000000
      0.0000000	      0.0000000	      0.0000000
      0.0000000	      0.0000000	      0.0000000
      0.0000000	      0.0000000	      0.0000000
      0.0000000	      0.0000000	      0.0000000
      0.0000000	      0.0000000	      0.0000000
      0.0000000	      0.0000000	      0.0000000
      0.0000000	      0.0000000	      0.0000000
      0.0000000	      0.0000000	      0.0000000
      0.0000000	      0.0000000	      0.0000000
      0.0000000	      0.0000000	      0.0000000
      0.0000000	      0.0000000	      0.0000000
      0.0000000	      0.0000000	      0.0000000
      0.0000000	      0.0000000	      0.0000000
      0.0000000	      0.0000000	      0.0000000
      0.0000000	      0.0000000	      0.0000000
      0.0000000	      0.0000000	      0.0000000
      0.0000000	      0.0000000	      0.0000000
      0.0000000	      0.0000000	      0.0000000
      0.0000000	      0.0000000	      0.0000000
      0.0000000	      0.0000000	      0.0000000
      0.0000000	      0.0000000	      0.0000000
      0.0000000	      0.0000000	      0.0000000
      0.0000000	      0.0000000	      0.0000000
      0.0000000	      0.0000000	      0.0000000
      0.0000000	      0.0000000	      0.0000000
      0.0000000	      0.0000000	      0.0000000
      0.0000000	      0.0000000	      0.0000000
      0.0000000	      0.0000000	      0.0000000
      0.0000000	      0.0000000	      0.0000000
      0.0000000	      0.0000000	      0.0000000
      0.0000000	      0.0000000	      0.0000000
      0.0000000	      0.0000000	      0.0000000
      0.0000000	      0.0000000	      0.0000000
     -0.0019161	     -0.0024314	      0.0000000
     -0.0019935	     -0.0031956	      0.0000000
     -0.0010015	     -0.0035186	      0.0000000
     -0.0001973	     -0.0035343	      0.0000000
      0.0008473	     -0.0034650	      0.0000000
      0.0015957	     -0.0033351	      0.0000000
      0.0022906	     -0.0031913	      0.0000000
      0.0026922	     -0.0030416	      0.0000000
      0.0029435	     -0.0028964	      0.0000000
      0.0029372	     -0.0027587	      0.0000000
      0.0027594	     -0.0026295	      0.0000000
      0.0023626	     -0.0025089	      0.0000000
      0.0017976	     -0.0023952	      0.0000000
      0.0010425	     -0.0022871	      0.0000000
      0.0001250	     -0.0021823	      0.0000000
     -0.0009670	     -0.0020793	      0.0000000
     -0.0022206	     -0.0019764	      0.0000000
     -0.0036447	     -0.0018726	      0.0000000
     -0.0052352	     -0.0017668	      0.0000000
     -0.0069995	     -0.0016587	      0.0000000
     -0.0089379	     -0.0015481	      0.0000000
     -0.0110560	     -0.0014350	      0.0000000
     -0.0133552	     -0.0013199	      0.0000000
     -0.0158388	     -0.0012033	      0.0000000
     -0.0185066	     -0.0010861	      0.0000000
     -0.0213584	     -0.0009693	      0.0000000
     -0.0243913	     -0.0008541	      0.0000000
     -0.0276007	     -0.0007417	      0.0000000
     -0.0309795	     -0.0006337	      0.0000000
     -0.0345181	     -0.0005315	      0.0000000
     -0.0382041	     -0.0004369	      0.0000000
     -0.0420222	     -0.0003518	      0.0000000
     -0.0459538	     -0.0002782	      0.0000000
     -0.0499768	     -0.0002182	      0.0000000
     -0.0540657	     -0.0001742	      0.0000000
     -0.0581912	     -0.0001486	      0.0000000
     -0.0623202	     -0.0001437	      0.0000000
     -0.0664157	     -0.0001623	      0.0000000
     -0.0704369	     -0.0002068	      0.0000000
     -0.0743393	     -0.0002796	      0.0000000
     -0.0780750	     -0.0003833	      0.0000000
     -0.0815928	     -0.0005199	      0.0000000
     -0.0848387	     -0.0006913	      0.0000000
     -0.0877568	     -0.0008991	      0.0000000
     -0.0902898	     -0.0011442	      0.0000000
     -0.0923797	     -0.0014270	      0.0000000
     -0.0939697	     -0.0017467	      0.0000000
     -0.0950048	     -0.0021018	      0.0000000
     -0.0954338	     -0.0024892	      0.0000000
     -0.0952117	     -0.0029053	      0.0000000
     -0.0942991	     -0.0033461	      0.0000000
     -0.0926633	     -0.0038072	      0.0000000
     -0.0902794	     -0.0042831	      0.0000000
     -0.0871313	     -0.0047678	      0.0000000
     -0.0832129	     -0.0052543	      0.0000000
     -0.0785291	     -0.0057349	      0.0000000
     -0.0730968	     -0.0062012	      0.0000000
     -0.0669457	     -0.0066443	      0.0000000
     -0.0601187	     -0.0070550	      0.0000000
     -0.0526724	     -0.0074240	      0.0000000
     -0.0446764	     -0.0077425	      0.0000000
     -0.0362132	     -0.0080019	      0.0000000
     -0.0273771	     -0.0081945	      0.0000000
     -0.0182730	     -0.0083137	      0.0000000
     -0.0090143	     -0.0083545	      0.0000000
      0.0002789	     -0.0083134	      0.0000000
      0.0094822	     -0.0081890	      0.0000000
      0.0184701	     -0.0079821	      0.0000000
      0.0271194	     -0.0076949	      0.0000000
      0.0353112	     -0.0073326	      0.0000000
      0.0429345	     -0.0069018	      0.0000000
      0.0498895	     -0.0064113	      0.0000000
      0.0560890	     -0.0058713	      0.0000000
      0.0614619	     -0.0052934	      0.0000000
      0.0659539	     -0.0046901	      0.0000000
      0.0695294	     -0.0040743	      0.0000000
      0.0721713	     -0.0034588	      0.0000000
      0.0738821	     -0.0028561	      0.0000000
      0.0746811	     -0.0022780	      0.0000000
      0.0746066	     -0.0017350	      0.0000000
      0.0737094	     -0.0012357	      0.0000000
      0.0720567	     -0.0007861	      0.0000000
      0.0697172	     -0.0003870	      0.0000000
      0.0667688	     -0.0000382	      0.0000000
      0.0632830	      0.0002598	      0.0000000
      0.0593444	      0.0005072	      0.0000000
      0.0550209	      0.0007067	      0.0000000
      0.0503991	      0.0008597	      0.0000000
      0.0455364	      0.0009698	      0.0000000
      0.0405236	      0.0010362	      0.0000000
      0.0354060	      0.0010616	      0.0000000
      0.0302898	      0.0010382	      0.0000000
      0.0252139	      0.0009655	      0.0000000
      0.0203205	      0.0008211	      0.0000000
      0.0156568	      0.0006031	      0.0000000
      0.0114209	      0.0002666	      0.0000000
      0.0076873	     -0.0001635	      0.0000000
      0.0046731	     -0.0007375	      0.0000000
      0.0024647	     -0.0012272	      0.0000000
      0.0009575	     -0.0014674	      0.0000000
      0.0000000	      0.0000000	      0.0000000
      0.0000000	      0.0000000	      0.0000000
     -0.0021608	     -0.0037272	      0.0000000
     -0.0022839	     -0.0053099	      0.0000000
     -0.0013034	     -0.0060783	      0.0000000
     -0.0003552	     -0.0062215	      0.0000000
      0.0008775	     -0.0061028	      0.0000000
      0.0017743	     -0.0057947	      0.0000000
      0.0025429	     -0.0054127	      0.0000000
      0.0028858	     -0.0049869	      0.0000000
      0.0029436	     -0.0045571	      0.0000000
      0.0025837	     -0.0041335	      0.0000000
      0.0019000	     -0.0037277	      0.0000000
      0.0008367	     -0.0033396	      0.0000000
     -0.0005468	     -0.0029693	      0.0000000
     -0.0022747	     -0.0026123	      0.0000000
     -0.0043135	     -0.0022648	      0.0000000
     -0.0066768	     -0.0019220	      0.0000000
     -0.0093495	     -0.0015800	      0.0000000
     -0.0123426	     -0.0012350	      0.0000000
     -0.0156525	     -0.0008850	      0.0000000
     -0.0192891	     -0.0005283	      0.0000000
     -0.0232543	     -0.0001647	      0.0000000
     -0.0275560	      0.0002054	      0.0000000
     -0.0321963	      0.0005807	      0.0000000
     -0.0371788	      0.0009587	      0.0000000
     -0.0425021	      0.0013367	      0.0000000
     -0.0481635	      0.0017112	      0.0000000
     -0.0541553	      0.0020781	      0.0000000
     -0.0604668	      0.0024330	      0.0000000
     -0.0670818	      0.0027710	      0.0000000
     -0.0739797	      0.0030866	      0.0000000
     -0.0811343	      0.0033739	      0.0000000
     -0.0885138	      0.0036267	      0.0000000
     -0.0960801	      0.0038383	      0.0000000
     -0.1037890	      0.0040015	      0.0000000
     -0.1115898	      0.0041090	      0.0000000
     -0.1194250	      0.0041533	      0.0000000
     -0.1272305	      0.0041264	      0.0000000
     -0.1349356	      0.0040207	      0.0000000
     -0.1424632	      0.0038286	      0.0000000
     -0.1497303	      0.0035427	      0.0000000
     -0.1566485	      0.0031564	      0.0000000
     -0.1631245	      0.0026638	      0.0000000
     -0.1690615	      0.0020600	      0.0000000
     -0.1743602	      0.0013416	      0.0000000
     -0.1789199	      0.0005067	      0.0000000
     -0.1826407	     -0.0004442	      0.0000000
     -0.1854250	     -0.0015081	      0.0000000
     -0.1871801	     -0.0026789	      0.0000000
     -0.1878206	     -0.0039467	      0.0000000
     -0.1872723	     -0.0052997	      0.0000000
     -0.1854718	     -0.0067249	      0.0000000
     -0.1823680	     -0.0082077	      0.0000000
     -0.1779236	     -0.0097312	      0.0000000
     -0.1721165	     -0.0112764	      0.0000000
     -0.1649419	     -0.0128218	      0.0000000
     -0.1564134	     -0.0143442	      0.0000000
     -0.1465648	     -0.0158183	      0.0000000
     -0.1354508	     -0.0172177	      0.0000000
     -0.1231475	     -0.0185154	      0.0000000
     -0.1097531	     -0.0196842	      0.0000000
     -0.0953868	     -0.0206979	      0.0000000
     -0.0801886	     -0.0215316	      0.0000000
     -0.0643174	     -0.0221628	      0.0000000
     -0.0479492	     -0.0225721	      0.0000000
     -0.0312744	     -0.0227442	      0.0000000
     -0.0144948	     -0.0226683	      0.0000000
      0.0021803	     -0.0223391	      0.0000000
      0.0185381	     -0.0217577	      0.0000000
      0.0343672	     -0.0209311	      0.0000000
      0.0494631	     -0.0198717	      0.0000000
      0.0636326	     -0.0185991	      0.0000000
      0.0766986	     -0.0171376	      0.0000000
      0.0885039	     -0.0155161	      0.0000000
      0.0989156	     -0.0137682	      0.0000000
      0.1078275	     -0.0119298	      0.0000000
      0.1151632	     -0.0100387	      0.0000000
      0.1208765	     -0.0081331	      0.0000000
      0.1249536	     -0.0062506	      0.0000000
      0.1274097	     -0.0044268	      0.0000000
      0.1282915	     -0.0026940	      0.0000000
      0.1276695	     -0.0010806	      0.0000000
      0.1256420	      0.0003937	      0.0000000
      0.1223190	      0.0017203	      0.0000000
      0.1178296	      0.0028933	      0.0000000
      0.1122982	      0.0039094	      0.0000000
      0.1058677	      0.0047679	      0.0000000
      0.0986634	      0.0054726	      0.0000000
      0.0908350	      0.0060261	      0.0000000
      0.0824990	      0.0064349	      0.0000000
      0.0738134	      0.0066972	      0.0000000
      0.0648828	      0.0068159	      0.0000000
      0.0558880	      0.0067737	      0.0000000
      0.0469273	      0.0065652	      0.0000000
      0.0382312	      0.0061435	      0.0000000
      0.0299016	      0.0055012	      0.0000000
      0.0222453	      0.0045522	      0.0000000
      0.0153626	      0.0033477	      0.0000000
      0.0096156	      0.0017995	      0.0000000
      0.0050341	      0.0003071	      0.0000000
      0.0018803	     -0.0009521	      0.0000000
      0.0000000	      0.0000000	      0.0000000
      0.0000000	      0.0000000	      0.0000000
     -0.0022144	     -0.0045185	      0.0000000
     -0.0024393	     -0.0070386	      0.0000000
     -0.0016316	     -0.0083355	      0.0000000
     -0.0008522	     -0.0086754	      0.0000000
      0.0001713	     -0.0084953	      0.0000000
      0.0008109	     -0.0079420	      0.0000000
      0.0012401	     -0.0072129	      0.0000000
      0.0011471	     -0.0063744	      0.0000000
      0.0006559	     -0.0055096	      0.0000000
     -0.0003730	     -0.0046416	      0.0000000
     -0.0018512	     -0.0037994	      0.0000000
     -0.0038364	     -0.0029840	      0.0000000
     -0.0062703	     -0.0021995	      0.0000000
     -0.0091773	     -0.0014376	      0.0000000
     -0.0125247	     -0.0006928	      0.0000000
     -0.0163265	      0.0000445	      0.0000000
     -0.0205692	      0.0007811	      0.0000000
     -0.0252650	      0.0015238	      0.0000000
     -0.0304121	      0.0022765	      0.0000000
     -0.0360224	      0.0030423	      0.0000000
     -0.0420994	      0.0038212	      0.0000000
     -0.0486519	      0.0046120	      0.0000000
     -0.0556825	      0.0054110	      0.0000000
     -0.0631939	      0.0062134	      0.0000000
     -0.0711827	      0.0070125	      0.0000000
     -0.0796424	      0.0078007	      0.0000000
     -0.0885598	      0.0085690	      0.0000000
     -0.0979166	      0.0093073	      0.0000000
     -0.1076868	      0.0100047	      0.0000000
     -0.1178376	      0.0106493	      0.0000000
     -0.1283284	      0.0112282	      0.0000000
     -0.1391102	      0.0117278	      0.0000000
     -0.1501256	      0.0121336	      0.0000000
     -0.1613083	      0.0124308	      0.0000000
     -0.1725832	      0.0126038	      0.0000000
     -0.1838661	      0.0126369	      0.0000000
     -0.1950641	      0.0125144	      0.0000000
     -0.2060760	      0.0122208	      0.0000000
     -0.2167926	      0.0117412	      0.0000000
     -0.2270973	      0.0110618	      0.0000000
     -0.2368678	      0.0101701	      0.0000000
     -0.2459763	      0.0090556	      0.0000000
     -0.2542917	      0.0077100	      0.0000000
     -0.2616810	      0.0061284	      0.0000000
     -0.2680114	      0.0043090	      0.0000000
     -0.2731519	      0.0022547	      0.0000000
     -0.2769764	     -0.0000266	      0.0000000
     -0.2793668	     -0.0025211	      0.0000000
     -0.2802143	     -0.0052071	      0.0000000
     -0.2794262	     -0.0080590	      0.0000000
     -0.2769253	     -0.0110499	      0.0000000
     -0.2726499	     -0.0141489	      0.0000000
     -0.2665572	     -0.0173217	      0.0000000
     -0.2586239	     -0.0205296	      0.0000000
     -0.2488486	     -0.0237299	      0.0000000
     -0.2372534	     -0.0268762	      0.0000000
     -0.2238855	     -0.0299192	      0.0000000
     -0.2088179	     -0.0328075	      0.0000000
     -0.1921501	     -0.0354885	      0.0000000
     -0.1740086	     -0.0379098	      0.0000000
     -0.1545460	     -0.0400205	      0.0000000
     -0.1339399	     -0.0417728	      0.0000000
     -0.1123918	     -0.0431228	      0.0000000
     -0.0901244	     -0.0440325	      0.0000000
     -0.0673790	     -0.0444713	      0.0000000
     -0.0444117	     -0.0444168	      0.0000000
     -0.0214901	     -0.0438567	      0.0000000
      0.0011127	     -0.0427898	      0.0000000
      0.0231210	     -0.0412266	      0.0000000
      0.0442661	     -0.0391910	      0.0000000
      0.0642892	     -0.0367167	      0.0000000
      0.0829514	     -0.0338487	      0.0000000
      0.1000347	     -0.0306415	      0.0000000
      0.1153494	     -0.0271580	      0.0000000
      0.1287382	     -0.0234668	      0.0000000
      0.1400791	     -0.0196414	      0.0000000
      0.1492881	     -0.0157565	      0.0000000
      0.1563211	     -0.0118867	      0.0000000
      0.1611729	     -0.0081037	      0.0000000
      0.1638779	     -0.0044739	      0.0000000
      0.1645052	     -0.0010565	      0.0000000
      0.1631590	      0.0021013	      0.0000000
      0.1599735	      0.0049704	      0.0000000
      0.1551077	      0.0075338	      0.0000000
      0.1487214	      0.0097806	      0.0000000
      0.1409989	      0.0117056	      0.0000000
      0.1321097	      0.0133108	      0.0000000
      0.1222528	      0.0145982	      0.0000000
      0.1115944	      0.0155744	      0.0000000
      0.1003479	      0.0162357	      0.0000000
      0.0886704	      0.0165817	      0.0000000
      0.0768039	      0.0165853	      0.0000000
      0.0648983	      0.0162298	      0.0000000
      0.0532536	      0.0154460	      0.0000000
      0.0420152	      0.0142117	      0.0000000
      0.0315752	      0.0124125	      0.0000000
      0.0220542	      0.0101070	      0.0000000
      0.0139532	      0.0072040	      0.0000000
      0.0072863	      0.0041649	      0.0000000
      0.0026886	      0.0011850	      0.0000000
      0.0000000	      0.0000000	      0.0000000
      0.0000000	      0.0000000	      0.0000000
     -0.0021721	     -0.0055734	      0.0000000
     -0.0025303	     -0.0088133	      0.0000000
     -0.0020541	     -0.0104990	      0.0000000
     -0.0016981	     -0.0109341	      0.0000000
     -0.0012102	     -0.0106197	      0.0000000
     -0.0011707	     -0.0097563	      0.0000000
     -0.0014300	     -0.0086091	      0.0000000
     -0.0022887	     -0.0072810	      0.0000000
     -0.0036386	     -0.0058952	      0.0000000
     -0.0056183	     -0.0044914	      0.0000000
     -0.0081480	     -0.0031158	      0.0000000
     -0.0112865	     -0.0017729	      0.0000000
     -0.0149804	     -0.0004706	      0.0000000
     -0.0192559	      0.0008024	      0.0000000
     -0.0240832	      0.0020531	      0.0000000
     -0.0294786	      0.0032956	      0.0000000
     -0.0354310	      0.0045391	      0.0000000
     -0.0419555	      0.0057940	      0.0000000
     -0.0490529	      0.0070659	      0.0000000
     -0.0567372	      0.0083586	      0.0000000
     -0.0650136	      0.0096717	      0.0000000
     -0.0738917	      0.0110021	      0.0000000
     -0.0833740	      0.0123433	      0.0000000
     -0.0934618	      0.0136864	      0.0000000
     -0.1041487	      0.0150197	      0.0000000
     -0.1154237	      0.0163296	      0.0000000
     -0.1272671	      0.0176003	      0.0000000
     -0.1396521	      0.0188145	      0.0000000
     -0.1525421	      0.0199529	      0.0000000
     -0.1658916	      0.0209951	      0.0000000
     -0.1796448	      0.0219190	      0.0000000
     -0.1937356	      0.0227016	      0.0000000
     -0.2080871	      0.0233188	      0.0000000
     -0.2226115	      0.0237457	      0.0000000
     -0.2372103	      0.0239570	      0.0000000
     -0.2517744	      0.0239273	      0.0000000
     -0.2661845	      0.0236315	      0.0000000
     -0.2803119	      0.0230455	      0.0000000
     -0.2940192	      0.0221466	      0.0000000
     -0.3071616	      0.0209141	      0.0000000
     -0.3195883	      0.0193300	      0.0000000
     -0.3311440	      0.0173797	      0.0000000
     -0.3416708	      0.0150531	      0.0000000
     -0.3510105	      0.0123447	      0.0000000
     -0.3590066	      0.0092553	      0.0000000
     -0.3655072	      0.0057920	      0.0000000
     -0.3703671	      0.0019703	      0.0000000
     -0.3734513	     -0.0021861	      0.0000000
     -0.3746368	     -0.0066414	      0.0000000
     -0.3738185	     -0.0113524	      0.0000000
     -0.3709112	     -0.0162749	      0.0000000
     -0.3658477	     -0.0213595	      0.0000000
     -0.3585822	     -0.0265509	      0.0000000
     -0.3490914	     -0.0317883	      0.0000000
     -0.3373767	     -0.0370045	      0.0000000
     -0.3234655	     -0.0421276	      0.0000000
     -0.3074133	     -0.0470810	      0.0000000
     -0.2893041	     -0.0517856	      0.0000000
     -0.2692512	     -0.0561607	      0.0000000
     -0.2473974	     -0.0601260	      0.0000000
     -0.2239145	     -0.0636035	      0.0000000
     -0.1990023	     -0.0665194	      0.0000000
     -0.1728871	     -0.0688060	      0.0000000
     -0.1458198	     -0.0704040	      0.0000000
     -0.1180726	     -0.0712643	      0.0000000
     -0.0899362	     -0.0713503	      0.0000000
     -0.0617155	     -0.0706395	      0.0000000
     -0.0337252	     -0.0691251	      0.0000000
     -0.0062842	     -0.0668185	      0.0000000
      0.0202885	     -0.0637492	      0.0000000
      0.0456836	     -0.0599672	      0.0000000
      0.0696068	     -0.0555379	      0.0000000
      0.0917870	     -0.0505395	      0.0000000
      0.1119823	     -0.0450671	      0.0000000
      0.1299828	     -0.0392242	      0.0000000
      0.1456178	     -0.0331229	      0.0000000
      0.1587586	     -0.0268792	      0.0000000
      0.1693213	     -0.0206103	      0.0000000
      0.1772664	     -0.0144300	      0.0000000
      0.1826020	     -0.0084461	      0.0000000
      0.1853778	     -0.0027560	      0.0000000
      0.1856883	      0.0025538	      0.0000000
      0.1836674	      0.0074222	      0.0000000
      0.1794908	      0.0118148	      0.0000000
      0.1733381	      0.0157061	      0.0000000
      0.1654212	      0.0190814	      0.0000000
      0.1559417	      0.0219360	      0.0000000
      0.1451364	      0.0242674	      0.0000000
      0.1332115	      0.0260791	      0.0000000
      0.1204265	      0.0273632	      0.0000000
      0.1069819	      0.0281143	      0.0000000
      0.0931721	      0.0282957	      0.0000000
      0.0791880	      0.0278791	      0.0000000
      0.0653884	      0.0267761	      0.0000000
      0.0519477	      0.0249476	      0.0000000
      0.0393343	      0.0222540	      0.0000000
      0.0276766	      0.0187400	      0.0000000
      0.0176197	      0.0142924	      0.0000000
      0.0091763	      0.0093472	      0.0000000
      0.0033442	      0.0040590	      0.0000000
      0.0000000	      0.0000000	      0.0000000
      0.0000000	      0.0000000	      0.0000000
     -0.0022131	     -0.0063485	      0.0000000
     -0.0028003	     -0.0101295	      0.0000000
     -0.0027651	     -0.0120581	      0.0000000
     -0.0029982	     -0.0124751	      0.0000000
     -0.0032470	     -0.0119254	      0.0000000
     -0.0040430	     -0.0106609	      0.0000000
     -0.0052408	     -0.0090042	      0.0000000
     -0.0071188	     -0.0070941	      0.0000000
     -0.0095756	     -0.0050916	      0.0000000
     -0.0127417	     -0.0030531	      0.0000000
     -0.0165442	     -0.0010420	      0.0000000
     -0.0210404	      0.0009339	      0.0000000
     -0.0261825	      0.0028623	      0.0000000
     -0.0319977	      0.0047571	      0.0000000
     -0.0384614	      0.0066270	      0.0000000
     -0.0455927	      0.0084909	      0.0000000
     -0.0533856	      0.0103611	      0.0000000
     -0.0618586	      0.0122513	      0.0000000
     -0.0710164	      0.0141682	      0.0000000
     -0.0808758	      0.0161161	      0.0000000
     -0.0914442	      0.0180930	      0.0000000
     -0.1027322	      0.0200933	      0.0000000
     -0.1147420	      0.0221059	      0.0000000
     -0.1274735	      0.0241167	      0.0000000
     -0.1409170	      0.0261070	      0.0000000
     -0.1550564	      0.0280555	      0.0000000
     -0.1698653	      0.0299376	      0.0000000
     -0.1853078	      0.0317263	      0.0000000
     -0.2013364	      0.0333921	      0.0000000
     -0.2178925	      0.0349036	      0.0000000
     -0.2349052	      0.0362274	      0.0000000
     -0.2522913	      0.0373288	      0.0000000
     -0.2699550	      0.0381717	      0.0000000
     -0.2877879	      0.0387196	      0.0000000
     -0.3056694	      0.0389355	      0.0000000
     -0.3234675	      0.0387831	      0.0000000
     -0.3410388	      0.0382269	      0.0000000
     -0.3582304	      0.0372333	      0.0000000
     -0.3748804	      0.0357715	      0.0000000
     -0.3908199	      0.0338140	      0.0000000
     -0.4058749	      0.0313379	      0.0000000
     -0.4198678	      0.0283257	      0.0000000
     -0.4326199	      0.0247663	      0.0000000
     -0.4439540	      0.0206559	      0.0000000
     -0.4536965	      0.0159992	      0.0000000
     -0.4616802	      0.0108103	      0.0000000
     -0.4677472	      0.0051144	      0.0000000
     -0.4717503	     -0.0010529	      0.0000000
     -0.4735593	     -0.0076398	      0.0000000
     -0.4730570	     -0.0145827	      0.0000000
     -0.4701528	     -0.0218168	      0.0000000
     -0.4647741	     -0.0292718	      0.0000000
     -0.4568712	     -0.0368692	      0.0000000
     -0.4464183	     -0.0445233	      0.0000000
     -0.4334157	     -0.0521404	      0.0000000
     -0.4178913	     -0.0596199	      0.0000000
     -0.3999020	     -0.0668560	      0.0000000
     -0.3795352	     -0.0737391	      0.0000000
     -0.3569088	     -0.0801578	      0.0000000
     -0.3321719	     -0.0860013	      0.0000000
     -0.3055046	     -0.0911617	      0.0000000
     -0.2771170	     -0.0955362	      0.0000000
     -0.2472479	     -0.0990304	      0.0000000
     -0.2161634	     -0.1015602	      0.0000000
     -0.1841541	     -0.1030549	      0.0000000
     -0.1515320	     -0.1034599	      0.0000000
     -0.1186272	     -0.1027389	      0.0000000
     -0.0857833	     -0.1008765	      0.0000000
     -0.0533525	     -0.0978796	      0.0000000
     -0.0216901	     -0.0937817	      0.0000000
      0.0088511	     -0.0886406	      0.0000000
      0.0379271	     -0.0825404	      0.0000000
      0.0652157	     -0.0755881	      0.0000000
      0.0904201	     -0.0679081	      0.0000000
      0.1132789	     -0.0596398	      0.0000000
      0.1335686	     -0.0509387	      0.0000000
      0.1511091	     -0.0419658	      0.0000000
      0.1657690	     -0.0328856	      0.0000000
      0.1774664	     -0.0238613	      0.0000000
      0.1861724	     -0.0150493	      0.0000000
      0.1919051	     -0.0065940	      0.0000000
      0.1947390	      0.0013713	      0.0000000
      0.1947860	      0.0087387	      0.0000000
      0.1922288	      0.0154427	      0.0000000
      0.1872557	      0.0214396	      0.0000000
      0.1800959	      0.0266977	      0.0000000
      0.1709731	      0.0312007	      0.0000000
      0.1601528	      0.0349369	      0.0000000
      0.1478727	      0.0379027	      0.0000000
      0.1344299	      0.0400837	      0.0000000
      0.1200611	      0.0414664	      0.0000000
      0.1051053	      0.0420045	      0.0000000
      0.0897883	      0.0416557	      0.0000000
      0.0745212	      0.0403157	      0.0000000
      0.0595050	      0.0379214	      0.0000000
      0.0452805	      0.0343129	      0.0000000
      0.0319921	      0.0294940	      0.0000000
      0.0204216	      0.0233256	      0.0000000
      0.0105976	      0.0161342	      0.0000000
      0.0038219	      0.0079878	      0.0000000
      0.0000000	      0.0000000	      0.0000000
      0.0000000	      0.0000000	      0.0000000
     -0.0023061	     -0.0070912	      0.0000000
     -0.0032028	     -0.0111914	      0.0000000
     -0.0037264	     -0.0131556	      0.0000000
     -0.0047009	     -0.0133708	      0.0000000
     -0.0058713	     -0.0124443	      0.0000000
     -0.0077076	     -0.0106658	      0.0000000
     -0.0100616	     -0.0084081	      0.0000000