# vtk DataFile Version 2.0
vw
ASCII
DATASET STRUCTURED_POINTS
DIMENSIONS  102  102    1
ORIGIN      0.0000000      0.0000000      0.0000000
SPACING      0.0100000      0.0100000      0.0100000
POINT_DATA  10404
VECTORS velocity float
      0.0000000	      0.0000000	      0.0000000
      0.0000000	      0.0000000	      0.0000000
      0.0000000	      0.0000000	      0.0000000
      0.0000000	      0.0000000	      0.0000000
      0.0000000	      0.0000000	      0.0000000
      0.0000000	      0.0000000	      0.0000000
      0.0000000	      0.0000000	      0.0000000
      0.0000000	      0.0000000	      0.0000000
      0.0000000	      0.0000000	      0.0000000
      0.0000000	      0.0000000	      0.0000000
      0.0000000	      0.0000000	      0.0000000
      0.0000000	      0.0000000	      0.0000000
      0.0000000	      0.0000000	      0.0000000
      0.0000000	      0.0000000	      0.0000000
      0.0000000	      0.0000000	      0.0000000
      0.0000000	      0.0000000	      0.0000000
      0.0000000	      0.0000000	      0.0000000
      0.0000000	      0.0000000	      0.0000000
      0.0000000	      0.0000000	      0.0000000
      0.0000000	      0.0000000	      0.0000000
      0.0000000	      0.0000000	      0.0000000
      0.0000000	      0.0000000	      0.0000000
      0.0000000	      0.0000000	      0.0000000
      0.0000000	      0.0000000	      0.0000000
      0.0000000	      0.0000000	      0.0000000
      0.0000000	      0.0000000	      0.0000000
      0.0000000	      0.0000000	      0.0000000
      0.0000000	      0.0000000	      0.0000000
      0.0000000	      0.0000000	      0.0000000
      0.0000000	      0.0000000	      0.0000000
      0.0000000	      0.0000000	      0.0000000
      0.0000000	      0.0000000	      0.0000000
      0.0000000	      0.0000000	      0.0000000
      0.0000000	      0.0000000	      0.0000000
      0.0000000	      0.0000000	      0.0000000
      0.0000000	      0.0000000	      0.0000000
      0.0000000	      0.0000000	      0.0000000
      0.0000000	      0.0000000	      0.0000000
      0.0000000	      0.0000000	      0.0000000
      0.0000000	      0.0000000	      0.0000000
      0.0000000	      0.0000000	      0.0000000
      0.0000000	      0.0000000	      0.0000000
      0.0000000	      0.0000000	      0.0000000
      0.0000000	      0.0000000	      0.0000000
      0.0000000	      0.0000000	      0.0000000
      0.0000000	      0.0000000	      0.0000000
      0.0000000	      0.0000000	      0.0000000
      0.0000000	      0.0000000	      0.0000000
      0.0000000	      0.0000000	      0.0000000
      0.0000000	      0.0000000	      0.0000000
      0.0000000	      0.0000000	      0.0000000
      0.0000000	      0.0000000	      0.0000000
      0.0000000	      0.0000000	      0.0000000
      0.0000000	      0.0000000	      0.0000000
      0.0000000	      0.0000000	      0.0000000
      0.0000000	      0.0000000	      0.0000000
      0.0000000	      0.0000000	      0.0000000
      0.0000000	      0.0000000	      0.0000000
      0.0000000	      0.0000000	      0.0000000
      0.0000000	      0.0000000	      0.0000000
      0.0000000	      0.0000000	      0.0000000
      0.0000000	      0.0000000	      0.0000000
      0.0000000	      0.0000000	      0.0000000
      0.0000000	      0.0000000	      0.0000000
      0.0000000	      0.0000000	      0.0000000
      0.0000000	      0.0000000	      0.0000000
      0.0000000	      0.0000000	      0.0000000
      0.0000000	      0.0000000	      0.0000000
      0.0000000	      0.0000000	      0.0000000
      0.0000000	      0.0000000	      0.0000000
      0.0000000	      0.0000000	      0.0000000
      0.0000000	      0.0000000	      0.0000000
      0.0000000	      0.0000000	      0.0000000
      0.0000000	      0.0000000	      0.0000000
      0.0000000	      0.0000000	      0.0000000
      0.0000000	      0.0000000	      0.0000000
      0.0000000	      0.0000000	      0.0000000
      0.0000000	      0.0000000	      0.0000000
      0.0000000	      0.0000000	      0.0000000
      0.0000000	      0.0000000	      0.0000000
      0.0000000	      0.0000000	      0.0000000
      0.0000000	      0.0000000	      0.0000000
      0.0000000	      0.0000000	      0.0000000
      0.0000000	      0.0000000	      0.0000000
      0.0000000	      0.0000000	      0.0000000
      0.0000000	      0.0000000	      0.0000000
      0.0000000	      0.0000000	      0.0000000
      0.0000000	      0.0000000	      0.0000000
      0.0000000	      0.0000000	      0.0000000
      0.0000000	      0.0000000	      0.0000000
      0.0000000	      0.0000000	      0.0000000
      0.0000000	      0.0000000	      0.0000000
      0.0000000	      0.0000000	      0.0000000
      0.0000000	      0.0000000	      0.0000000
      0.0000000	      0.0000000	      0.0000000
      0.0000000	      0.0000000	      0.0000000
      0.0000000	      0.0000000	      0.0000000
      0.0000000	      0.0000000	      0.0000000
      0.0000000	      0.0000000	      0.0000000
      0.0000000	      0.0000000	      0.0000000
      0.0000000	      0.0000000	      0.0000000
      0.0000000	      0.0000000	      0.0000000
      0.0000000	      0.0000000	      0.0000000
     -0.0122577	     -0.0153416	      0.0000000
     -0.0150373	     -0.0217906	      0.0000000
     -0.0074520	     -0.0250287	      0.0000000
      0.0002349	     -0.0263938	      0.0000000
      0.0097651	     -0.0265744	      0.0000000
      0.0187757	     -0.0260015	      0.0000000
      0.0269694	     -0.0249233	      0.0000000
      0.0336644	     -0.0235482	      0.0000000
      0.0386502	     -0.0220312	      0.0000000
      0.0417979	     -0.0204949	      0.0000000
      0.0431465	     -0.0190241	      0.0000000
      0.0428096	     -0.0176708	      0.0000000
      0.0409537	     -0.0164564	      0.0000000
      0.0377576	     -0.0153791	      0.0000000
      0.0333886	     -0.0144193	      0.0000000
      0.0279858	     -0.0135491	      0.0000000
      0.0216521	     -0.0127375	      0.0000000
      0.0144555	     -0.0119562	      0.0000000
      0.0064331	     -0.0111800	      0.0000000
     -0.0024038	     -0.0103916	      0.0000000
     -0.0120601	     -0.0095833	      0.0000000
     -0.0225457	     -0.0087520	      0.0000000
     -0.0338737	     -0.0078995	      0.0000000
     -0.0460528	     -0.0070307	      0.0000000
     -0.0590888	     -0.0061506	      0.0000000
     -0.0729769	     -0.0052664	      0.0000000
     -0.0876985	     -0.0043896	      0.0000000
     -0.1032232	     -0.0035309	      0.0000000
     -0.1195087	     -0.0027013	      0.0000000
     -0.1365009	     -0.0019116	      0.0000000
     -0.1541343	     -0.0011728	      0.0000000
     -0.1723319	     -0.0004951	      0.0000000
     -0.1910062	      0.0001100	      0.0000000
     -0.2100562	      0.0006288	      0.0000000
     -0.2293737	      0.0010514	      0.0000000
     -0.2488410	      0.0013678	      0.0000000
     -0.2683331	      0.0015690	      0.0000000
     -0.2877180	      0.0016461	      0.0000000
     -0.3068574	      0.0015910	      0.0000000
     -0.3256079	      0.0013964	      0.0000000
     -0.3438214	      0.0010558	      0.0000000
     -0.3613468	      0.0005637	      0.0000000
     -0.3780308	     -0.0000840	      0.0000000
     -0.3937185	     -0.0008883	      0.0000000
     -0.4082555	     -0.0018477	      0.0000000
     -0.4214929	     -0.0029613	      0.0000000
     -0.4332848	     -0.0042254	      0.0000000
     -0.4434915	     -0.0056454	      0.0000000
     -0.4519701	     -0.0072358	      0.0000000
     -0.4585582	     -0.0090049	      0.0000000
     -0.4630894	     -0.0109454	      0.0000000
     -0.4654153	     -0.0130397	      0.0000000
     -0.4654087	     -0.0152690	      0.0000000
     -0.4629616	     -0.0176129	      0.0000000
     -0.4579871	     -0.0200496	      0.0000000
     -0.4504194	     -0.0225553	      0.0000000
     -0.4402163	     -0.0251037	      0.0000000
     -0.4273608	     -0.0276660	      0.0000000
     -0.4118638	     -0.0302107	      0.0000000
     -0.3937664	     -0.0327035	      0.0000000
     -0.3731427	     -0.0351079	      0.0000000
     -0.3501017	     -0.0373850	      0.0000000
     -0.3247899	     -0.0394945	      0.0000000
     -0.2973927	     -0.0413954	      0.0000000
     -0.2681354	     -0.0430465	      0.0000000
     -0.2372837	     -0.0444077	      0.0000000
     -0.2051433	     -0.0454411	      0.0000000
     -0.1720577	     -0.0461123	      0.0000000
     -0.1384052	     -0.0463921	      0.0000000
     -0.1045949	     -0.0462579	      0.0000000
     -0.0710599	     -0.0456953	      0.0000000
     -0.0382499	     -0.0447005	      0.0000000
     -0.0066186	     -0.0432808	      0.0000000
      0.0233823	     -0.0414613	      0.0000000
      0.0513297	     -0.0392791	      0.0000000
      0.0768354	     -0.0367708	      0.0000000
      0.0995523	     -0.0339935	      0.0000000
      0.1191923	     -0.0310132	      0.0000000
      0.1355396	     -0.0279041	      0.0000000
      0.1484573	     -0.0247445	      0.0000000
      0.1578937	     -0.0216137	      0.0000000
      0.1638844	     -0.0185890	      0.0000000
      0.1665509	     -0.0157417	      0.0000000
      0.1660942	     -0.0131338	      0.0000000
      0.1627872	     -0.0108161	      0.0000000
      0.1569592	     -0.0088242	      0.0000000
      0.1489854	     -0.0071779	      0.0000000
      0.1392598	     -0.0058689	      0.0000000
      0.1281550	     -0.0048712	      0.0000000
      0.1160184	     -0.0041607	      0.0000000
      0.1031850	     -0.0037144	      0.0000000
      0.0899708	     -0.0035173	      0.0000000
      0.0766767	     -0.0035588	      0.0000000
      0.0635988	     -0.0038412	      0.0000000
      0.0510336	     -0.0043790	      0.0000000
      0.0393119	     -0.0051985	      0.0000000
      0.0287620	     -0.0062848	      0.0000000
      0.0197136	     -0.0075431	      0.0000000
      0.0123833	     -0.0083941	      0.0000000
      0.0059697	     -0.0077763	      0.0000000
      0.0000000	      0.0000000	      0.0000000
      0.0000000	      0.0000000	      0.0000000
     -0.0138381	     -0.0256747	      0.0000000
     -0.0162491	     -0.0389449	      0.0000000
     -0.0070843	     -0.0464929	      0.0000000
      0.0035054	     -0.0500401	      0.0000000
      0.0167721	     -0.0507756	      0.0000000
      0.0296316	     -0.0495481	      0.0000000
      0.0413394	     -0.0469655	      0.0000000
      0.0508100	     -0.0435444	      0.0000000
      0.0575881	     -0.0396930	      0.0000000
      0.0613882	     -0.0357338	      0.0000000
      0.0621814	     -0.0318956	      0.0000000
      0.0600726	     -0.0283230	      0.0000000
      0.0552621	     -0.0250827	      0.0000000
      0.0479862	     -0.0221805	      0.0000000
      0.0384785	     -0.0195772	      0.0000000
      0.0269437	     -0.0172093	      0.0000000
      0.0135423	     -0.0150038	      0.0000000
     -0.0016066	     -0.0128948	      0.0000000
     -0.0184307	     -0.0108256	      0.0000000
     -0.0368797	     -0.0087521	      0.0000000
     -0.0569296	     -0.0066531	      0.0000000
     -0.0785656	     -0.0045196	      0.0000000
     -0.1017759	     -0.0023538	      0.0000000
     -0.1265427	     -0.0001646	      0.0000000
     -0.1528390	      0.0020330	      0.0000000
     -0.1806048	      0.0042080	      0.0000000
     -0.2097693	      0.0063330	      0.0000000
     -0.2402388	      0.0083803	      0.0000000
     -0.2719000	      0.0103221	      0.0000000
     -0.3046195	      0.0121304	      0.0000000
     -0.3382445	      0.0137774	      0.0000000
     -0.3726035	      0.0152354	      0.0000000
     -0.4075081	      0.0164762	      0.0000000
     -0.4427552	      0.0174738	      0.0000000
     -0.4781289	      0.0182047	      0.0000000
     -0.5134011	      0.0186472	      0.0000000
     -0.5483341	      0.0187811	      0.0000000
     -0.5826827	      0.0185883	      0.0000000
     -0.6161955	      0.0180526	      0.0000000
     -0.6486178	      0.0171602	      0.0000000
     -0.6796927	      0.0158996	      0.0000000
     -0.7091636	      0.0142621	      0.0000000
     -0.7367759	      0.0122422	      0.0000000
     -0.7622786	      0.0098380	      0.0000000
     -0.7854250	      0.0070527	      0.0000000
     -0.8059729	      0.0038921	      0.0000000
     -0.8236912	      0.0003636	      0.0000000
     -0.8383384	     -0.0035235	      0.0000000
     -0.8497171	     -0.0077867	      0.0000000
     -0.8576154	     -0.0124502	      0.0000000
     -0.8618248	     -0.0174951	      0.0000000
     -0.8621674	     -0.0228741	      0.0000000
     -0.8584998	     -0.0285397	      0.0000000
     -0.8507087	     -0.0344418	      0.0000000
     -0.8387135	     -0.0405277	      0.0000000
     -0.8224670	     -0.0467405	      0.0000000
     -0.8019569	     -0.0530187	      0.0000000
     -0.7772085	     -0.0592952	      0.0000000
     -0.7482866	     -0.0654974	      0.0000000
     -0.7152983	     -0.0715475	      0.0000000
     -0.6783955	     -0.0773624	      0.0000000
     -0.6377770	     -0.0828547	      0.0000000
     -0.5936913	     -0.0879338	      0.0000000
     -0.5464377	     -0.0925073	      0.0000000
     -0.4963677	     -0.0964822	      0.0000000
     -0.4438856	     -0.0997678	      0.0000000
     -0.3894479	     -0.1022774	      0.0000000
     -0.3335613	     -0.1039315	      0.0000000
     -0.2767802	     -0.1046608	      0.0000000
     -0.2197014	     -0.1044094	      0.0000000
     -0.1629584	     -0.1031388	      0.0000000
     -0.1072116	     -0.1008313	      0.0000000
     -0.0531406	     -0.0974946	      0.0000000
     -0.0014196	     -0.0931682	      0.0000000
      0.0472600	     -0.0879264	      0.0000000
      0.0922891	     -0.0818706	      0.0000000
      0.1330949	     -0.0751113	      0.0000000
      0.1691807	     -0.0678009	      0.0000000
      0.2001399	     -0.0601093	      0.0000000
      0.2256725	     -0.0522197	      0.0000000
      0.2455961	     -0.0443235	      0.0000000
      0.2598569	     -0.0366114	      0.0000000
      0.2685330	     -0.0292646	      0.0000000
      0.2718315	     -0.0224472	      0.0000000
      0.2700836	     -0.0162995	      0.0000000
      0.2637261	     -0.0109288	      0.0000000
      0.2532942	     -0.0064092	      0.0000000
      0.2393814	     -0.0027364	      0.0000000
      0.2225937	      0.0001415	      0.0000000
      0.2035178	      0.0022579	      0.0000000
      0.1827652	      0.0036491	      0.0000000
      0.1609089	      0.0043537	      0.0000000
      0.1385032	      0.0044011	      0.0000000
      0.1160882	      0.0037969	      0.0000000
      0.0941858	      0.0025231	      0.0000000
      0.0733445	      0.0005398	      0.0000000
      0.0540479	     -0.0021136	      0.0000000
      0.0368792	     -0.0052923	      0.0000000
      0.0220053	     -0.0080583	      0.0000000
      0.0100019	     -0.0090099	      0.0000000
      0.0000000	      0.0000000	      0.0000000
      0.0000000	      0.0000000	      0.0000000
     -0.0135221	     -0.0321135	      0.0000000
     -0.0152912	     -0.0533445	      0.0000000
     -0.0055230	     -0.0665602	      0.0000000
      0.0060328	     -0.0732694	      0.0000000
      0.0203763	     -0.0749837	      0.0000000
      0.0342015	     -0.0729774	      0.0000000
      0.0465292	     -0.0683380	      0.0000000
      0.0560711	     -0.0619976	      0.0000000
      0.0622192	     -0.0547266	      0.0000000
      0.0645775	     -0.0471350	      0.0000000
      0.0630473	     -0.0396668	      0.0000000
      0.0576956	     -0.0326105	      0.0000000
      0.0487092	     -0.0261130	      0.0000000
      0.0363282	     -0.0202079	      0.0000000
      0.0207998	     -0.0148418	      0.0000000
      0.0023548	     -0.0099159	      0.0000000
     -0.0188283	     -0.0053136	      0.0000000
     -0.0425803	     -0.0009211	      0.0000000
     -0.0687994	      0.0033577	      0.0000000
     -0.0973778	      0.0075856	      0.0000000
     -0.1282443	      0.0118027	      0.0000000
     -0.1613332	      0.0160251	      0.0000000
     -0.1965780	      0.0202469	      0.0000000
     -0.2338984	      0.0244438	      0.0000000
     -0.2731931	      0.0285737	      0.0000000
     -0.3143374	      0.0325861	      0.0000000
     -0.3571830	      0.0364302	      0.0000000
     -0.4015538	      0.0400527	      0.0000000
     -0.4472480	      0.0434002	      0.0000000
     -0.4940386	      0.0464200	      0.0000000
     -0.5416762	      0.0490611	      0.0000000
     -0.5898909	      0.0512743	      0.0000000
     -0.6383954	      0.0530131	      0.0000000
     -0.6868883	      0.0542341	      0.0000000
     -0.7350566	      0.0548989	      0.0000000
     -0.7825783	      0.0549731	      0.0000000
     -0.8291254	      0.0544271	      0.0000000
     -0.8743673	      0.0532354	      0.0000000
     -0.9179733	      0.0513773	      0.0000000
     -0.9596154	      0.0488372	      0.0000000
     -0.9989707	      0.0456042	      0.0000000
     -1.0357240	      0.0416728	      0.0000000
     -1.0695692	      0.0370424	      0.0000000
     -1.1002118	      0.0317181	      0.0000000
     -1.1273690	      0.0257097	      0.0000000
     -1.1507705	      0.0190307	      0.0000000
     -1.1701593	      0.0116958	      0.0000000
     -1.1852997	      0.0037271	      0.0000000
     -1.1959478	     -0.0048731	      0.0000000
     -1.2018950	     -0.0141136	      0.0000000
     -1.2029946	     -0.0239451	      0.0000000
     -1.1991052	     -0.0342821	      0.0000000
     -1.1901313	     -0.0450397	      0.0000000
     -1.1760062	     -0.0561292	      0.0000000
     -1.1566985	     -0.0674578	      0.0000000
     -1.1322109	     -0.0789269	      0.0000000
     -1.1025830	     -0.0904308	      0.0000000
     -1.0678922	     -0.1018564	      0.0000000
     -1.0282558	     -0.1130822	      0.0000000
     -0.9838332	     -0.1239790	      0.0000000
     -0.9348280	     -0.1344102	      0.0000000
     -0.8814900	     -0.1442327	      0.0000000
     -0.8241177	     -0.1532982	      0.0000000
     -0.7630601	     -0.1614554	      0.0000000
     -0.6987179	     -0.1685522	      0.0000000
     -0.6315449	     -0.1744387	      0.0000000
     -0.5620483	     -0.1789708	      0.0000000
     -0.4907879	     -0.1820141	      0.0000000
     -0.4183744	     -0.1834488	      0.0000000
     -0.3454662	     -0.1831748	      0.0000000
     -0.2727648	     -0.1811169	      0.0000000
     -0.2010085	     -0.1772310	      0.0000000
     -0.1309627	     -0.1715111	      0.0000000
     -0.0634131	     -0.1639940	      0.0000000
      0.0008648	     -0.1547786	      0.0000000
      0.0610550	     -0.1440126	      0.0000000
      0.1164706	     -0.1319056	      0.0000000
      0.1664471	     -0.1186837	      0.0000000
      0.2104213	     -0.1046287	      0.0000000
      0.2479304	     -0.0900510	      0.0000000
      0.2786333	     -0.0752828	      0.0000000
      0.3023299	     -0.0606669	      0.0000000
      0.3189708	     -0.0465390	      0.0000000
      0.3286605	     -0.0332152	      0.0000000
      0.3316619	     -0.0209787	      0.0000000
      0.3283763	     -0.0100635	      0.0000000
      0.3193629	     -0.0006487	      0.0000000
      0.3052408	      0.0072019	      0.0000000
      0.2867967	      0.0135240	      0.0000000
      0.2647795	      0.0183402	      0.0000000
      0.2399675	      0.0217008	      0.0000000
      0.2131231	      0.0236695	      0.0000000
      0.1849935	      0.0242994	      0.0000000
      0.1563131	      0.0236157	      0.0000000
      0.1277870	      0.0216136	      0.0000000
      0.1001517	      0.0182653	      0.0000000
      0.0740403	      0.0136343	      0.0000000
      0.0503392	      0.0079215	      0.0000000
      0.0292798	      0.0021274	      0.0000000
      0.0128860	     -0.0024422	      0.0000000
      0.0000000	      0.0000000	      0.0000000
      0.0000000	      0.0000000	      0.0000000
     -0.0128244	     -0.0412796	      0.0000000
     -0.0140400	     -0.0699511	      0.0000000
     -0.0043279	     -0.0883232	      0.0000000
      0.0067753	     -0.0978530	      0.0000000
      0.0202704	     -0.1002417	      0.0000000
      0.0328622	     -0.0971311	      0.0000000
      0.0435238	     -0.0900387	      0.0000000
      0.0509093	     -0.0803051	      0.0000000
      0.0543519	     -0.0690651	      0.0000000
      0.0534005	     -0.0572261	      0.0000000
      0.0479078	     -0.0454585	      0.0000000
      0.0378990	     -0.0342083	      0.0000000
      0.0235245	     -0.0237104	      0.0000000
      0.0050038	     -0.0140329	      0.0000000
     -0.0174478	     -0.0051282	      0.0000000
     -0.0435936	      0.0031344	      0.0000000
     -0.0732158	      0.0108951	      0.0000000
     -0.1061015	      0.0182896	      0.0000000
     -0.1420867	      0.0254401	      0.0000000
     -0.1810250	      0.0324332	      0.0000000
     -0.2227875	      0.0393234	      0.0000000
     -0.2672429	      0.0461268	      0.0000000
     -0.3142486	      0.0528254	      0.0000000
     -0.3636415	      0.0593748	      0.0000000
     -0.4152330	      0.0657100	      0.0000000
     -0.4688079	      0.0717533	      0.0000000
     -0.5241225	      0.0774231	      0.0000000
     -0.5809039	      0.0826368	      0.0000000
     -0.6388528	      0.0873127	      0.0000000
     -0.6976453	      0.0913725	      0.0000000
     -0.7569375	      0.0947419	      0.0000000
     -0.8163680	      0.0973520	      0.0000000
     -0.8755630	      0.0991399	      0.0000000
     -0.9341402	      0.1000498	      0.0000000
     -0.9917125	      0.1000336	      0.0000000
     -1.0478918	      0.0990510	      0.0000000
     -1.1022926	      0.0970696	      0.0000000
     -1.1545359	      0.0940647	      0.0000000
     -1.2042517	      0.0900197	      0.0000000
     -1.2510825	      0.0849255	      0.0000000
     -1.2946854	      0.0787807	      0.0000000
     -1.3347342	      0.0715916	      0.0000000
     -1.3709208	      0.0633712	      0.0000000
     -1.4029569	      0.0541395	      0.0000000
     -1.4305741	      0.0439226	      0.0000000
     -1.4535247	      0.0327510	      0.0000000
     -1.4715809	      0.0206587	      0.0000000
     -1.4845475	      0.0076822	      0.0000000
     -1.4922285	     -0.0061552	      0.0000000
     -1.4944511	     -0.0208117	      0.0000000
     -1.4911640	     -0.0361891	      0.0000000
     -1.4822905	     -0.0521718	      0.0000000
     -1.4678017	     -0.0686416	      0.0000000
     -1.4476897	     -0.0854758	      0.0000000
     -1.4219765	     -0.1025456	      0.0000000
     -1.3907121	     -0.1197153	      0.0000000
     -1.3539775	     -0.1368400	      0.0000000
     -1.3118850	     -0.1537656	      0.0000000
     -1.2645807	     -0.1703278	      0.0000000
     -1.2122465	     -0.1863522	      0.0000000
     -1.1551019	     -0.2016550	      0.0000000
     -1.0934068	     -0.2160434	      0.0000000
     -1.0274639	     -0.2293181	      0.0000000
     -0.9576214	     -0.2412743	      0.0000000
     -0.8842747	     -0.2517058	      0.0000000
     -0.8078692	     -0.2604076	      0.0000000
     -0.7289010	     -0.2671808	      0.0000000
     -0.6479181	     -0.2718376	      0.0000000
     -0.5655198	     -0.2742073	      0.0000000
     -0.4823559	     -0.2741423	      0.0000000
     -0.3991233	     -0.2715259	      0.0000000
     -0.3165620	     -0.2662798	      0.0000000
     -0.2354489	     -0.2583723	      0.0000000
     -0.1565891	     -0.2478279	      0.0000000
     -0.0808089	     -0.2347343	      0.0000000
     -0.0089278	     -0.2192714	      0.0000000
      0.0581868	     -0.2016834	      0.0000000
      0.1197939	     -0.1823080	      0.0000000
      0.1751915	     -0.1615144	      0.0000000
      0.2237776	     -0.1397186	      0.0000000
      0.2650573	     -0.1173900	      0.0000000
      0.2986694	     -0.0950223	      0.0000000
      0.3244035	     -0.0731111	      0.0000000
      0.3422081	     -0.0521389	      0.0000000
      0.3522055	     -0.0325536	      0.0000000
      0.3546762	     -0.0147464	      0.0000000
      0.3500964	      0.0009601	      0.0000000
      0.3390239	      0.0143587	      0.0000000
      0.3223126	      0.0254036	      0.0000000
      0.3007679	      0.0340991	      0.0000000
      0.2752652	      0.0404879	      0.0000000
      0.2466874	      0.0446390	      0.0000000
      0.2159178	      0.0466200	      0.0000000
      0.1838390	      0.0464728	      0.0000000
      0.1513057	      0.0442056	      0.0000000
      0.1192234	      0.0397947	      0.0000000
      0.0883792	      0.0332864	      0.0000000
      0.0599753	      0.0248365	      0.0000000
      0.0344124	      0.0152396	      0.0000000
      0.0148709	      0.0055273	      0.0000000
      0.0000000	      0.0000000	      0.0000000
      0.0000000	      0.0000000	      0.0000000
     -0.0124340	     -0.0503219	      0.0000000
     -0.0136063	     -0.0858751	      0.0000000
     -0.0046657	     -0.1088154	      0.0000000
      0.0049131	     -0.1206006	      0.0000000
      0.0161746	     -0.1231401	      0.0000000
      0.0259210	     -0.1184195	      0.0000000
      0.0331843	     -0.1083637	      0.0000000
      0.0366601	     -0.0947087	      0.0000000
      0.0357008	     -0.0789456	      0.0000000
      0.0298542	     -0.0622747	      0.0000000
      0.0189565	     -0.0455874	      0.0000000
      0.0030115	     -0.0294805	      0.0000000
     -0.0178796	     -0.0142910	      0.0000000
     -0.0435153	     -0.0001295	      0.0000000
     -0.0737082	      0.0130540	      0.0000000
     -0.1081596	      0.0253442	      0.0000000
     -0.1466275	      0.0368967	      0.0000000
     -0.1888797	      0.0478816	      0.0000000
     -0.2347093	      0.0584496	      0.0000000
     -0.2839168	      0.0687027	      0.0000000
     -0.3363031	      0.0786946	      0.0000000
     -0.3916551	      0.0884289	      0.0000000
     -0.4497395	      0.0978675	      0.0000000
     -0.5102964	      0.1069392	      0.0000000
     -0.5730373	      0.1155497	      0.0000000
     -0.6376454	      0.1235919	      0.0000000
     -0.7037761	      0.1309544	      0.0000000
     -0.7710589	      0.1375261	      0.0000000
     -0.8391009	      0.1431999	      0.0000000
     -0.9074913	      0.1478756	      0.0000000
     -0.9758054	      0.1514613	      0.0000000
     -1.0436107	      0.1538749	      0.0000000
     -1.1104708	      0.1550448	      0.0000000
     -1.1759512	      0.1549112	      0.0000000
     -1.2396235	      0.1534258	      0.0000000
     -1.3010692	      0.1505524	      0.0000000
     -1.3598841	      0.1462663	      0.0000000
     -1.4156814	      0.1405543	      0.0000000
     -1.4680942	      0.1334140	      0.0000000
     -1.5167786	      0.1248535	      0.0000000
     -1.5614145	      0.1148906	      0.0000000
     -1.6017077	      0.1035522	      0.0000000
     -1.6373898	      0.0908737	      0.0000000
     -1.6682192	      0.0768981	      0.0000000
     -1.6939806	      0.0616745	      0.0000000
     -1.7144849	      0.0452575	      0.0000000
     -1.7295676	      0.0277061	      0.0000000
     -1.7391070	      0.0090816	      0.0000000
     -1.7429683	     -0.0105684	      0.0000000
     -1.7410725	     -0.0311441	      0.0000000
     -1.7334358	     -0.0524947	      0.0000000
     -1.7200444	     -0.0744838	      0.0000000
     -1.7009215	     -0.0969682	      0.0000000
     -1.6761033	     -0.1197993	      0.0000000
     -1.6456457	     -0.1428209	      0.0000000
     -1.6096244	     -0.1658679	      0.0000000
     -1.5681367	     -0.1887644	      0.0000000
     -1.5213032	     -0.2113233	      0.0000000
     -1.4692697	     -0.2333448	      0.0000000
     -1.4122101	     -0.2546171	      0.0000000
     -1.3503287	     -0.2749156	      0.0000000
     -1.2838636	     -0.2940048	      0.0000000
     -1.2130895	     -0.3116392	      0.0000000
     -1.1383215	     -0.3275659	      0.0000000
     -1.0599178	     -0.3415278	      0.0000000
     -0.9782829	     -0.3532677	      0.0000000
     -0.8938704	     -0.3625334	      0.0000000
     -0.8071845	     -0.3690832	      0.0000000
     -0.7187814	     -0.3726937	      0.0000000
     -0.6292698	     -0.3731669	      0.0000000
     -0.5393089	     -0.3703390	      0.0000000
     -0.4496067	     -0.3640903	      0.0000000
     -0.3609148	     -0.3543547	      0.0000000
     -0.2740228	     -0.3411308	      0.0000000
     -0.1897496	     -0.3244939	      0.0000000
     -0.1089371	     -0.3046044	      0.0000000
     -0.0324299	     -0.2817404	      0.0000000
      0.0388948	     -0.2562652	      0.0000000
      0.1042320	     -0.2286557	      0.0000000
      0.1628674	     -0.1994404	      0.0000000
      0.2141676	     -0.1691916	      0.0000000
      0.2576244	     -0.1385491	      0.0000000
      0.2928665	     -0.1081659	      0.0000000
      0.3196744	     -0.0786943	      0.0000000
      0.3380052	     -0.0507589	      0.0000000
      0.3479803	     -0.0249291	      0.0000000
      0.3499429	     -0.0016991	      0.0000000
      0.3443208	      0.0185118	      0.0000000
      0.3319161	      0.0355251	      0.0000000
      0.3135373	      0.0492979	      0.0000000
      0.2900836	      0.0598319	      0.0000000
      0.2624980	      0.0671786	      0.0000000
      0.2317472	      0.0714018	      0.0000000
      0.1988194	      0.0725465	      0.0000000
      0.1646892	      0.0706202	      0.0000000
      0.1304132	      0.0655837	      0.0000000
      0.0969340	      0.0574169	      0.0000000
      0.0657416	      0.0461475	      0.0000000
      0.0374246	      0.0321947	      0.0000000
      0.0159979	      0.0161019	      0.0000000
      0.0000000	      0.0000000	      0.0000000
      0.0000000	      0.0000000	      0.0000000
     -0.0124881	     -0.0596927	      0.0000000
     -0.0142029	     -0.1014143	      0.0000000
     -0.0068088	     -0.1280182	      0.0000000
      0.0002594	     -0.1411724	      0.0000000
      0.0081044	     -0.1430796	      0.0000000
      0.0136798	     -0.1360850	      0.0000000
      0.0161346	     -0.1225026	      0.0000000