# vtk DataFile Version 2.0
vw
ASCII
DATASET STRUCTURED_POINTS
DIMENSIONS  102  102    1
ORIGIN      0.0000000      0.0000000      0.0000000
SPACING      0.0100000      0.0100000      0.0100000
POINT_DATA  10404
VECTORS velocity float
      0.0000000	      0.0000000	      0.0000000
      0.0000000	      0.0000000	      0.0000000
      0.0000000	      0.0000000	      0.0000000
      0.0000000	      0.0000000	      0.0000000
      0.0000000	      0.0000000	      0.0000000
      0.0000000	      0.0000000	      0.0000000
      0.0000000	      0.0000000	      0.0000000
      0.0000000	      0.0000000	      0.0000000
      0.0000000	      0.0000000	      0.0000000
      0.0000000	      0.0000000	      0.0000000
      0.0000000	      0.0000000	      0.0000000
      0.0000000	      0.0000000	      0.0000000
      0.0000000	      0.0000000	      0.0000000
      0.0000000	      0.0000000	      0.0000000
      0.0000000	      0.0000000	      0.0000000
      0.0000000	      0.0000000	      0.0000000
      0.0000000	      0.0000000	      0.0000000
      0.0000000	      0.0000000	      0.0000000
      0.0000000	      0.0000000	      0.0000000
      0.0000000	      0.0000000	      0.0000000
      0.0000000	      0.0000000	      0.0000000
      0.0000000	      0.0000000	      0.0000000
      0.0000000	      0.0000000	      0.0000000
      0.0000000	      0.0000000	      0.0000000
      0.0000000	      0.0000000	      0.0000000
      0.0000000	      0.0000000	      0.0000000
      0.0000000	      0.0000000	      0.0000000
      0.0000000	      0.0000000	      0.0000000
      0.0000000	      0.0000000	      0.0000000
      0.0000000	      0.0000000	      0.0000000
      0.0000000	      0.0000000	      0.0000000
      0.0000000	      0.0000000	      0.0000000
      0.0000000	      0.0000000	      0.0000000
      0.0000000	      0.0000000	      0.0000000
      0.0000000	      0.0000000	      0.0000000
      0.0000000	      0.0000000	      0.0000000
      0.0000000	      0.0000000	      0.0000000
      0.0000000	      0.0000000	      0.0000000
      0.0000000	      0.0000000	      0.0000000
      0.0000000	      0.0000000	      0.0000000
      0.0000000	      0.0000000	      0.0000000
      0.0000000	      0.0000000	      0.0000000
      0.0000000	      0.0000000	      0.0000000
      0.0000000	      0.0000000	      0.0000000
      0.0000000	      0.0000000	      0.0000000
      0.0000000	      0.0000000	      0.0000000
      0.0000000	      0.0000000	      0.0000000
      0.0000000	      0.0000000	      0.0000000
      0.0000000	      0.0000000	      0.0000000
      0.0000000	      0.0000000	      0.0000000
      0.0000000	      0.0000000	      0.0000000
      0.0000000	      0.0000000	      0.0000000
      0.0000000	      0.0000000	      0.0000000
      0.0000000	      0.0000000	      0.0000000
      0.0000000	      0.0000000	      0.0000000
      0.0000000	      0.0000000	      0.0000000
      0.0000000	      0.0000000	      0.0000000
      0.0000000	      0.0000000	      0.0000000
      0.0000000	      0.0000000	      0.0000000
      0.0000000	      0.0000000	      0.0000000
      0.0000000	      0.0000000	      0.0000000
      0.0000000	      0.0000000	      0.0000000
      0.0000000	      0.0000000	      0.0000000
      0.0000000	      0.0000000	      0.0000000
      0.0000000	      0.0000000	      0.0000000
      0.0000000	      0.0000000	      0.0000000
      0.0000000	      0.0000000	      0.0000000
      0.0000000	      0.0000000	      0.0000000
      0.0000000	      0.0000000	      0.0000000
      0.0000000	      0.0000000	      0.0000000
      0.0000000	      0.0000000	      0.0000000
      0.0000000	      0.0000000	      0.0000000
      0.0000000	      0.0000000	      0.0000000
      0.0000000	      0.0000000	      0.0000000
      0.0000000	      0.0000000	      0.0000000
      0.0000000	      0.0000000	      0.0000000
      0.0000000	      0.0000000	      0.0000000
      0.0000000	      0.0000000	      0.0000000
      0.0000000	      0.0000000	      0.0000000
      0.0000000	      0.0000000	      0.0000000
      0.0000000	      0.0000000	      0.0000000
      0.0000000	      0.0000000	      0.0000000
      0.0000000	      0.0000000	      0.0000000
      0.0000000	      0.0000000	      0.0000000
      0.0000000	      0.0000000	      0.0000000
      0.0000000	      0.0000000	      0.0000000
      0.0000000	      0.0000000	      0.0000000
      0.0000000	      0.0000000	      0.0000000
      0.0000000	      0.0000000	      0.0000000
      0.0000000	      0.0000000	      0.0000000
      0.0000000	      0.0000000	      0.0000000
      0.0000000	      0.0000000	      0.0000000
      0.0000000	      0.0000000	      0.0000000
      0.0000000	      0.0000000	      0.0000000
      0.0000000	      0.0000000	      0.0000000
      0.0000000	      0.0000000	      0.0000000
      0.0000000	      0.0000000	      0.0000000
      0.0000000	      0.0000000	      0.0000000
      0.0000000	      0.0000000	      0.0000000
      0.0000000	      0.0000000	      0.0000000
      0.0000000	      0.0000000	      0.0000000
      0.0000000	      0.0000000	      0.0000000
      0.0000000	      0.0000000	      0.0000000
     -0.0015157	     -0.0019989	      0.0000000
     -0.0015933	     -0.0025779	      0.0000000
     -0.0008829	     -0.0027837	      0.0000000
     -0.0004111	     -0.0027348	      0.0000000
      0.0001696	     -0.0026274	      0.0000000
      0.0004448	     -0.0024800	      0.0000000
      0.0006196	     -0.0023343	      0.0000000
      0.0005229	     -0.0021940	      0.0000000
      0.0002798	     -0.0020676	      0.0000000
     -0.0001783	     -0.0019549	      0.0000000
     -0.0007742	     -0.0018560	      0.0000000
     -0.0015335	     -0.0017689	      0.0000000
     -0.0024100	     -0.0016916	      0.0000000
     -0.0034128	     -0.0016219	      0.0000000
     -0.0045161	     -0.0015574	      0.0000000
     -0.0057242	     -0.0014963	      0.0000000
     -0.0070240	     -0.0014371	      0.0000000
     -0.0084189	     -0.0013784	      0.0000000
     -0.0099034	     -0.0013196	      0.0000000
     -0.0114804	     -0.0012600	      0.0000000
     -0.0131480	     -0.0011996	      0.0000000
     -0.0149084	     -0.0011385	      0.0000000
     -0.0167606	     -0.0010768	      0.0000000
     -0.0187050	     -0.0010152	      0.0000000
     -0.0207398	     -0.0009542	      0.0000000
     -0.0228632	     -0.0008946	      0.0000000
     -0.0250714	     -0.0008372	      0.0000000
     -0.0273597	     -0.0007829	      0.0000000
     -0.0297217	     -0.0007328	      0.0000000
     -0.0321494	     -0.0006878	      0.0000000
     -0.0346333	     -0.0006491	      0.0000000
     -0.0371618	     -0.0006178	      0.0000000
     -0.0397216	     -0.0005952	      0.0000000
     -0.0422974	     -0.0005826	      0.0000000
     -0.0448717	     -0.0005812	      0.0000000
     -0.0474251	     -0.0005924	      0.0000000
     -0.0499360	     -0.0006176	      0.0000000
     -0.0523810	     -0.0006581	      0.0000000
     -0.0547343	     -0.0007152	      0.0000000
     -0.0569685	     -0.0007902	      0.0000000
     -0.0590544	     -0.0008841	      0.0000000
     -0.0609612	     -0.0009979	      0.0000000
     -0.0626574	     -0.0011324	      0.0000000
     -0.0641102	     -0.0012879	      0.0000000
     -0.0652871	     -0.0014646	      0.0000000
     -0.0661556	     -0.0016621	      0.0000000
     -0.0666845	     -0.0018794	      0.0000000
     -0.0668447	     -0.0021150	      0.0000000
     -0.0666097	     -0.0023674	      0.0000000
     -0.0659559	     -0.0026342	      0.0000000
     -0.0648636	     -0.0029129	      0.0000000
     -0.0633173	     -0.0032008	      0.0000000
     -0.0613061	     -0.0034945	      0.0000000
     -0.0588248	     -0.0037902	      0.0000000
     -0.0558740	     -0.0040837	      0.0000000
     -0.0524611	     -0.0043707	      0.0000000
     -0.0486003	     -0.0046461	      0.0000000
     -0.0443133	     -0.0049051	      0.0000000
     -0.0396294	     -0.0051425	      0.0000000
     -0.0345853	     -0.0053533	      0.0000000
     -0.0292254	     -0.0055324	      0.0000000
     -0.0236010	     -0.0056754	      0.0000000
     -0.0177699	     -0.0057783	      0.0000000
     -0.0117956	     -0.0058374	      0.0000000
     -0.0057463	     -0.0058504	      0.0000000
      0.0003067	     -0.0058154	      0.0000000
      0.0062898	     -0.0057319	      0.0000000
      0.0121292	     -0.0056005	      0.0000000
      0.0177524	     -0.0054226	      0.0000000
      0.0230896	     -0.0052010	      0.0000000
      0.0280757	     -0.0049393	      0.0000000
      0.0326513	     -0.0046423	      0.0000000
      0.0367645	     -0.0043156	      0.0000000
      0.0403719	     -0.0039652	      0.0000000
      0.0434393	     -0.0035980	      0.0000000
      0.0459430	     -0.0032206	      0.0000000
      0.0478685	     -0.0028402	      0.0000000
      0.0492129	     -0.0024632	      0.0000000
      0.0499816	     -0.0020960	      0.0000000
      0.0501909	     -0.0017444	      0.0000000
      0.0498636	     -0.0014131	      0.0000000
      0.0490320	     -0.0011063	      0.0000000
      0.0477311	     -0.0008263	      0.0000000
      0.0460031	     -0.0005739	      0.0000000
      0.0438855	     -0.0003489	      0.0000000
      0.0414264	     -0.0001524	      0.0000000
      0.0386637	      0.0000162	      0.0000000
      0.0356507	      0.0001559	      0.0000000
      0.0324226	      0.0002676	      0.0000000
      0.0290410	      0.0003487	      0.0000000
      0.0255373	      0.0003996	      0.0000000
      0.0219891	      0.0004129	      0.0000000
      0.0184282	      0.0003873	      0.0000000
      0.0149608	      0.0003054	      0.0000000
      0.0116283	      0.0001662	      0.0000000
      0.0085761	     -0.0000632	      0.0000000
      0.0058671	     -0.0003618	      0.0000000
      0.0036527	     -0.0007656	      0.0000000
      0.0020065	     -0.0010958	      0.0000000
      0.0008213	     -0.0012219	      0.0000000
      0.0000000	      0.0000000	      0.0000000
      0.0000000	      0.0000000	      0.0000000
     -0.0017502	     -0.0030344	      0.0000000
     -0.0019533	     -0.0041858	      0.0000000
     -0.0014009	     -0.0046453	      0.0000000
     -0.0010134	     -0.0045860	      0.0000000
     -0.0005358	     -0.0043398	      0.0000000
     -0.0004397	     -0.0039651	      0.0000000
     -0.0005429	     -0.0035658	      0.0000000
     -0.0010509	     -0.0031607	      0.0000000
     -0.0018325	     -0.0027825	      0.0000000
     -0.0029654	     -0.0024334	      0.0000000
     -0.0043583	     -0.0021206	      0.0000000
     -0.0060343	     -0.0018391	      0.0000000
     -0.0079338	     -0.0015866	      0.0000000
     -0.0100609	     -0.0013564	      0.0000000
     -0.0123799	     -0.0011435	      0.0000000
     -0.0148909	     -0.0009421	      0.0000000
     -0.0175750	     -0.0007482	      0.0000000
     -0.0204331	     -0.0005579	      0.0000000
     -0.0234567	     -0.0003690	      0.0000000
     -0.0266476	     -0.0001797	      0.0000000
     -0.0300022	      0.0000104	      0.0000000
     -0.0335217	      0.0002013	      0.0000000
     -0.0372035	      0.0003920	      0.0000000
     -0.0410463	      0.0005809	      0.0000000
     -0.0450458	      0.0007662	      0.0000000
     -0.0491969	      0.0009456	      0.0000000
     -0.0534917	      0.0011165	      0.0000000
     -0.0579201	      0.0012759	      0.0000000
     -0.0624693	      0.0014207	      0.0000000
     -0.0671236	      0.0015475	      0.0000000
     -0.0718641	      0.0016527	      0.0000000
     -0.0766688	      0.0017326	      0.0000000
     -0.0815120	      0.0017833	      0.0000000
     -0.0863648	      0.0018006	      0.0000000
     -0.0911943	      0.0017805	      0.0000000
     -0.0959644	      0.0017187	      0.0000000
     -0.1006350	      0.0016110	      0.0000000
     -0.1051627	      0.0014534	      0.0000000
     -0.1095006	      0.0012419	      0.0000000
     -0.1135990	      0.0009729	      0.0000000
     -0.1174050	      0.0006432	      0.0000000
     -0.1208639	      0.0002502	      0.0000000
     -0.1239193	     -0.0002078	      0.0000000
     -0.1265137	     -0.0007319	      0.0000000
     -0.1285899	     -0.0013217	      0.0000000
     -0.1300919	     -0.0019757	      0.0000000
     -0.1309661	     -0.0026906	      0.0000000
     -0.1311626	     -0.0034616	      0.0000000
     -0.1306366	     -0.0042830	      0.0000000
     -0.1293493	     -0.0051477	      0.0000000
     -0.1272680	     -0.0060478	      0.0000000
     -0.1243681	     -0.0069741	      0.0000000
     -0.1206332	     -0.0079161	      0.0000000
     -0.1160563	     -0.0088622	      0.0000000
     -0.1106411	     -0.0097996	      0.0000000
     -0.1044021	     -0.0107144	      0.0000000
     -0.0973661	     -0.0115922	      0.0000000
     -0.0895718	     -0.0124176	      0.0000000
     -0.0810710	     -0.0131755	      0.0000000
     -0.0719278	     -0.0138505	      0.0000000
     -0.0622188	     -0.0144280	      0.0000000
     -0.0520324	     -0.0148943	      0.0000000
     -0.0414675	     -0.0152372	      0.0000000
     -0.0306330	     -0.0154464	      0.0000000
     -0.0196452	     -0.0155138	      0.0000000
     -0.0086268	     -0.0154340	      0.0000000
      0.0022959	     -0.0152048	      0.0000000
      0.0129951	     -0.0148272	      0.0000000
      0.0233445	     -0.0143055	      0.0000000
      0.0332222	     -0.0136470	      0.0000000
      0.0425127	     -0.0128625	      0.0000000
      0.0511101	     -0.0119654	      0.0000000
      0.0589198	     -0.0109721	      0.0000000
      0.0658613	     -0.0099004	      0.0000000
      0.0718685	     -0.0087702	      0.0000000
      0.0768926	     -0.0076018	      0.0000000
      0.0809010	     -0.0064160	      0.0000000
      0.0838795	     -0.0052331	      0.0000000
      0.0858291	     -0.0040724	      0.0000000
      0.0867692	     -0.0029520	      0.0000000
      0.0867315	     -0.0018873	      0.0000000
      0.0857642	     -0.0008919	      0.0000000
      0.0839229	      0.0000260	      0.0000000
      0.0812754	      0.0008616	      0.0000000
      0.0778888	      0.0016113	      0.0000000
      0.0738446	      0.0022715	      0.0000000
      0.0692139	      0.0028414	      0.0000000
      0.0640889	      0.0033176	      0.0000000
      0.0585408	      0.0036999	      0.0000000
      0.0526754	      0.0039816	      0.0000000
      0.0465636	      0.0041601	      0.0000000
      0.0403353	      0.0042178	      0.0000000
      0.0340644	      0.0041482	      0.0000000
      0.0279220	      0.0039138	      0.0000000
      0.0219896	      0.0035101	      0.0000000
      0.0164936	      0.0028737	      0.0000000
      0.0115156	      0.0020482	      0.0000000
      0.0073150	      0.0009709	      0.0000000
      0.0039215	     -0.0000497	      0.0000000
      0.0015146	     -0.0008768	      0.0000000
      0.0000000	      0.0000000	      0.0000000
      0.0000000	      0.0000000	      0.0000000
     -0.0018497	     -0.0035839	      0.0000000
     -0.0022467	     -0.0053423	      0.0000000
     -0.0020068	     -0.0060637	      0.0000000
     -0.0019690	     -0.0059960	      0.0000000
     -0.0019162	     -0.0055521	      0.0000000
     -0.0023139	     -0.0048553	      0.0000000
     -0.0030047	     -0.0040825	      0.0000000
     -0.0041958	     -0.0032805	      0.0000000
     -0.0057637	     -0.0025169	      0.0000000
     -0.0077827	     -0.0018013	      0.0000000
     -0.0101596	     -0.0011522	      0.0000000
     -0.0129115	     -0.0005620	      0.0000000
     -0.0159736	     -0.0000291	      0.0000000
     -0.0193437	      0.0004594	      0.0000000
     -0.0229811	      0.0009114	      0.0000000
     -0.0268812	      0.0013384	      0.0000000
     -0.0310213	      0.0017480	      0.0000000
     -0.0353993	      0.0021479	      0.0000000
     -0.0400041	      0.0025425	      0.0000000
     -0.0448353	      0.0029353	      0.0000000
     -0.0498874	      0.0033271	      0.0000000
     -0.0551598	      0.0037179	      0.0000000
     -0.0606477	      0.0041057	      0.0000000
     -0.0663475	      0.0044875	      0.0000000
     -0.0722519	      0.0048595	      0.0000000
     -0.0783523	      0.0052169	      0.0000000
     -0.0846366	      0.0055541	      0.0000000
     -0.0910895	      0.0058653	      0.0000000
     -0.0976919	      0.0061437	      0.0000000
     -0.1044211	      0.0063823	      0.0000000
     -0.1112496	      0.0065736	      0.0000000
     -0.1181458	      0.0067097	      0.0000000
     -0.1250735	      0.0067824	      0.0000000
     -0.1319915	      0.0067834	      0.0000000
     -0.1388538	      0.0067040	      0.0000000
     -0.1456097	      0.0065357	      0.0000000
     -0.1522035	      0.0062700	      0.0000000
     -0.1585751	      0.0058986	      0.0000000
     -0.1646602	      0.0054138	      0.0000000
     -0.1703904	      0.0048086	      0.0000000
     -0.1756942	      0.0040771	      0.0000000
     -0.1804976	      0.0032143	      0.0000000
     -0.1847248	      0.0022171	      0.0000000
     -0.1882991	      0.0010844	      0.0000000
     -0.1911448	     -0.0001827	      0.0000000
     -0.1931878	     -0.0015801	      0.0000000
     -0.1943578	     -0.0031006	      0.0000000
     -0.1945900	     -0.0047338	      0.0000000
     -0.1938270	     -0.0064672	      0.0000000
     -0.1920187	     -0.0082863	      0.0000000
     -0.1891245	     -0.0101744	      0.0000000
     -0.1851137	     -0.0121124	      0.0000000
     -0.1799665	     -0.0140790	      0.0000000
     -0.1736759	     -0.0160506	      0.0000000
     -0.1662481	     -0.0180015	      0.0000000
     -0.1577036	     -0.0199041	      0.0000000
     -0.1480780	     -0.0217293	      0.0000000
     -0.1374230	     -0.0234470	      0.0000000
     -0.1258060	     -0.0250269	      0.0000000
     -0.1133106	     -0.0264389	      0.0000000
     -0.1000360	     -0.0276540	      0.0000000
     -0.0860964	     -0.0286453	      0.0000000
     -0.0716201	     -0.0293882	      0.0000000
     -0.0567475	     -0.0298619	      0.0000000
     -0.0416298	     -0.0300501	      0.0000000
     -0.0264261	     -0.0299414	      0.0000000
     -0.0113018	     -0.0295299	      0.0000000
      0.0035754	     -0.0288162	      0.0000000
      0.0180376	     -0.0278077	      0.0000000
      0.0319214	     -0.0265184	      0.0000000
      0.0450708	     -0.0249674	      0.0000000
      0.0573408	     -0.0231810	      0.0000000
      0.0685997	     -0.0211899	      0.0000000
      0.0787330	     -0.0190288	      0.0000000
      0.0876440	     -0.0167362	      0.0000000
      0.0952574	     -0.0143526	      0.0000000
      0.1015187	     -0.0119189	      0.0000000
      0.1063968	     -0.0094763	      0.0000000
      0.1098815	     -0.0070640	      0.0000000
      0.1119862	     -0.0047189	      0.0000000
      0.1127416	     -0.0024740	      0.0000000
      0.1122016	     -0.0003582	      0.0000000
      0.1104304	      0.0016077	      0.0000000
      0.1075151	      0.0034097	      0.0000000
      0.1035418	      0.0050370	      0.0000000
      0.0986163	      0.0064808	      0.0000000
      0.0928358	      0.0077359	      0.0000000
      0.0863221	      0.0087948	      0.0000000
      0.0791771	      0.0096532	      0.0000000
      0.0715420	      0.0102980	      0.0000000
      0.0635211	      0.0107200	      0.0000000
      0.0552859	      0.0108898	      0.0000000
      0.0469449	      0.0107897	      0.0000000
      0.0387185	      0.0103631	      0.0000000
      0.0307185	      0.0095943	      0.0000000
      0.0232336	      0.0083991	      0.0000000
      0.0163600	      0.0068289	      0.0000000
      0.0104606	      0.0048207	      0.0000000
      0.0055544	      0.0027273	      0.0000000
      0.0020997	      0.0006945	      0.0000000
      0.0000000	      0.0000000	      0.0000000
      0.0000000	      0.0000000	      0.0000000
     -0.0018823	     -0.0042556	      0.0000000
     -0.0025142	     -0.0063876	      0.0000000
     -0.0027308	     -0.0072154	      0.0000000
     -0.0032554	     -0.0070264	      0.0000000
     -0.0038885	     -0.0063018	      0.0000000
     -0.0050435	     -0.0052120	      0.0000000
     -0.0065809	     -0.0039946	      0.0000000
     -0.0086901	     -0.0027251	      0.0000000
     -0.0112568	     -0.0015039	      0.0000000
     -0.0143472	     -0.0003503	      0.0000000
     -0.0178703	      0.0007055	      0.0000000
     -0.0218369	      0.0016718	      0.0000000
     -0.0261807	      0.0025498	      0.0000000
     -0.0308945	      0.0033574	      0.0000000
     -0.0359352	      0.0041062	      0.0000000
     -0.0412943	      0.0048135	      0.0000000
     -0.0469468	      0.0054906	      0.0000000
     -0.0528876	      0.0061495	      0.0000000
     -0.0591034	      0.0067967	      0.0000000
     -0.0655916	      0.0074377	      0.0000000
     -0.0723448	      0.0080739	      0.0000000
     -0.0793597	      0.0087050	      0.0000000
     -0.0866297	      0.0093278	      0.0000000
     -0.0941483	      0.0099378	      0.0000000
     -0.1019055	      0.0105284	      0.0000000
     -0.1098891	      0.0110919	      0.0000000
     -0.1180828	      0.0116195	      0.0000000
     -0.1264668	      0.0121011	      0.0000000
     -0.1350163	      0.0125259	      0.0000000
     -0.1437020	      0.0128822	      0.0000000
     -0.1524893	      0.0131578	      0.0000000
     -0.1613382	      0.0133397	      0.0000000
     -0.1702031	      0.0134145	      0.0000000
     -0.1790324	      0.0133684	      0.0000000
     -0.1877689	      0.0131876	      0.0000000
     -0.1963495	      0.0128582	      0.0000000
     -0.2047056	      0.0123667	      0.0000000
     -0.2127631	      0.0117001	      0.0000000
     -0.2204433	      0.0108463	      0.0000000
     -0.2276630	      0.0097946	      0.0000000
     -0.2343355	      0.0085360	      0.0000000
     -0.2403717	      0.0070636	      0.0000000
     -0.2456806	      0.0053732	      0.0000000
     -0.2501711	      0.0034637	      0.0000000
     -0.2537531	      0.0013379	      0.0000000
     -0.2563393	     -0.0009968	      0.0000000
     -0.2578468	     -0.0035280	      0.0000000
     -0.2581993	     -0.0062381	      0.0000000
     -0.2573300	     -0.0091061	      0.0000000
     -0.2551812	     -0.0121084	      0.0000000
     -0.2517061	     -0.0152176	      0.0000000
     -0.2468694	     -0.0184032	      0.0000000
     -0.2406491	     -0.0216311	      0.0000000
     -0.2330372	     -0.0248637	      0.0000000
     -0.2240411	     -0.0280604	      0.0000000
     -0.2136847	     -0.0311775	      0.0000000
     -0.2020091	     -0.0341695	      0.0000000
     -0.1890735	     -0.0369892	      0.0000000
     -0.1749551	     -0.0395891	      0.0000000
     -0.1597499	     -0.0419219	      0.0000000
     -0.1435715	     -0.0439424	      0.0000000
     -0.1265510	     -0.0456077	      0.0000000
     -0.1088359	     -0.0468794	      0.0000000
     -0.0905881	     -0.0477240	      0.0000000
     -0.0719826	     -0.0481147	      0.0000000
     -0.0532048	     -0.0480320	      0.0000000
     -0.0344479	     -0.0474652	      0.0000000
     -0.0159098	     -0.0464127	      0.0000000
      0.0022103	     -0.0448834	      0.0000000
      0.0197149	     -0.0428964	      0.0000000
      0.0364140	     -0.0404814	      0.0000000
      0.0521279	     -0.0376761	      0.0000000
      0.0666920	     -0.0345274	      0.0000000
      0.0799591	     -0.0310887	      0.0000000
      0.0918020	     -0.0274190	      0.0000000
      0.1021176	     -0.0235813	      0.0000000
      0.1108263	     -0.0196407	      0.0000000
      0.1178760	     -0.0156622	      0.0000000
      0.1232390	     -0.0117092	      0.0000000
      0.1269158	     -0.0078419	      0.0000000
      0.1289291	     -0.0041150	      0.0000000
      0.1293294	     -0.0005773	      0.0000000
      0.1281825	      0.0027313	      0.0000000
      0.1255851	      0.0057822	      0.0000000
      0.1216361	      0.0085556	      0.0000000
      0.1164579	      0.0110334	      0.0000000
      0.1101671	      0.0132031	      0.0000000
      0.1029091	      0.0150505	      0.0000000
      0.0948099	      0.0165647	      0.0000000
      0.0860398	      0.0177249	      0.0000000
      0.0767301	      0.0185132	      0.0000000
      0.0670866	      0.0188885	      0.0000000
      0.0572434	      0.0188207	      0.0000000
      0.0474615	      0.0182358	      0.0000000
      0.0378708	      0.0171044	      0.0000000
      0.0288158	      0.0153227	      0.0000000
      0.0203967	      0.0129332	      0.0000000
      0.0130842	      0.0098566	      0.0000000
      0.0068968	      0.0064276	      0.0000000
      0.0025590	      0.0027586	      0.0000000
      0.0000000	      0.0000000	      0.0000000
      0.0000000	      0.0000000	      0.0000000
     -0.0019792	     -0.0046008	      0.0000000
     -0.0029216	     -0.0068968	      0.0000000
     -0.0036825	     -0.0076649	      0.0000000
     -0.0049001	     -0.0072290	      0.0000000
     -0.0063745	     -0.0061159	      0.0000000
     -0.0084640	     -0.0045412	      0.0000000
     -0.0110310	     -0.0027929	      0.0000000
     -0.0142381	     -0.0009754	      0.0000000
     -0.0179738	      0.0007813	      0.0000000
     -0.0222906	      0.0024468	      0.0000000
     -0.0270983	      0.0039794	      0.0000000
     -0.0324003	      0.0053878	      0.0000000
     -0.0381298	      0.0066730	      0.0000000
     -0.0442751	      0.0078585	      0.0000000
     -0.0507922	      0.0089597	      0.0000000
     -0.0576694	      0.0100000	      0.0000000
     -0.0648804	      0.0109949	      0.0000000
     -0.0724176	      0.0119604	      0.0000000
     -0.0802665	      0.0129058	      0.0000000
     -0.0884225	      0.0138386	      0.0000000
     -0.0968764	      0.0147605	      0.0000000
     -0.1056233	      0.0156711	      0.0000000
     -0.1146545	      0.0165658	      0.0000000
     -0.1239614	      0.0174380	      0.0000000
     -0.1335315	      0.0182781	      0.0000000
     -0.1433498	      0.0190751	      0.0000000
     -0.1533967	      0.0198157	      0.0000000
     -0.1636482	      0.0204856	      0.0000000
     -0.1740753	      0.0210686	      0.0000000
     -0.1846432	      0.0215477	      0.0000000
     -0.1953112	      0.0219049	      0.0000000
     -0.2060324	      0.0221210	      0.0000000
     -0.2167534	      0.0221765	      0.0000000
     -0.2274140	      0.0220513	      0.0000000
     -0.2379475	      0.0217252	      0.0000000
     -0.2482806	      0.0211783	      0.0000000
     -0.2583338	      0.0203912	      0.0000000
     -0.2680216	      0.0193454	      0.0000000
     -0.2772534	      0.0180242	      0.0000000
     -0.2859337	      0.0164126	      0.0000000
     -0.2939636	      0.0144985	      0.0000000
     -0.3012416	      0.0122730	      0.0000000
     -0.3076648	      0.0097310	      0.0000000
     -0.3131301	      0.0068721	      0.0000000
     -0.3175364	      0.0037014	      0.0000000
     -0.3207851	      0.0002300	      0.0000000
     -0.3227840	     -0.0035235	      0.0000000
     -0.3234463	     -0.0075329	      0.0000000
     -0.3226970	     -0.0117670	      0.0000000
     -0.3204713	     -0.0161911	      0.0000000
     -0.3167164	     -0.0207660	      0.0000000
     -0.3113920	     -0.0254480	      0.0000000
     -0.3044721	     -0.0301883	      0.0000000
     -0.2959459	     -0.0349338	      0.0000000
     -0.2858190	     -0.0396269	      0.0000000
     -0.2741151	     -0.0442061	      0.0000000
     -0.2608764	     -0.0486072	      0.0000000
     -0.2461644	     -0.0527638	      0.0000000
     -0.2300608	     -0.0566088	      0.0000000
     -0.2126674	     -0.0600758	      0.0000000
     -0.1941057	     -0.0631003	      0.0000000
     -0.1745168	     -0.0656218	      0.0000000
     -0.1540602	     -0.0675849	      0.0000000
     -0.1329121	     -0.0689412	      0.0000000
     -0.1112641	     -0.0696510	      0.0000000
     -0.0893207	     -0.0696846	      0.0000000
     -0.0672966	     -0.0690238	      0.0000000
     -0.0454134	     -0.0676632	      0.0000000
     -0.0238967	     -0.0656109	      0.0000000
     -0.0029715	     -0.0628899	      0.0000000
      0.0171402	     -0.0595371	      0.0000000
      0.0362268	     -0.0556047	      0.0000000
      0.0540898	     -0.0511556	      0.0000000
      0.0705499	     -0.0462623	      0.0000000
      0.0854480	     -0.0410073	      0.0000000
      0.0986506	     -0.0354788	      0.0000000
      0.1100499	     -0.0297688	      0.0000000
      0.1195686	     -0.0239705	      0.0000000
      0.1271572	     -0.0181756	      0.0000000
      0.1327981	     -0.0124720	      0.0000000
      0.1365004	     -0.0069416	      0.0000000
      0.1383056	     -0.0016580	      0.0000000
      0.1382753	      0.0033136	      0.0000000
      0.1365079	      0.0079238	      0.0000000
      0.1331109	      0.0121393	      0.0000000
      0.1282178	      0.0159295	      0.0000000
      0.1219599	      0.0192715	      0.0000000
      0.1145008	      0.0221414	      0.0000000
      0.1059860	      0.0245192	      0.0000000
      0.0966096	      0.0263745	      0.0000000
      0.0865247	      0.0276788	      0.0000000
      0.0759659	      0.0283786	      0.0000000
      0.0650883	      0.0284292	      0.0000000
      0.0541883	      0.0277407	      0.0000000
      0.0434117	      0.0262642	      0.0000000
      0.0331549	      0.0238783	      0.0000000
      0.0235285	      0.0205967	      0.0000000
      0.0151038	      0.0163198	      0.0000000
      0.0079110	      0.0113036	      0.0000000
      0.0028939	      0.0055940	      0.0000000
      0.0000000	      0.0000000	      0.0000000
      0.0000000	      0.0000000	      0.0000000
     -0.0021153	     -0.0048300	      0.0000000
     -0.0034300	     -0.0070495	      0.0000000
     -0.0048243	     -0.0075485	      0.0000000
     -0.0068493	     -0.0066916	      0.0000000
     -0.0093016	     -0.0050596	      0.0000000
     -0.0124732	     -0.0029008	      0.0000000
     -0.0162231	     -0.0005451	      0.0000000