# vtk DataFile Version 2.0
vw
ASCII
DATASET STRUCTURED_POINTS
DIMENSIONS  102  102    1
ORIGIN      0.0000000      0.0000000      0.0000000
SPACING      0.0100000      0.0100000      0.0100000
POINT_DATA  10404
VECTORS velocity float
      0.0000000	      0.0000000	      0.0000000
      0.0000000	      0.0000000	      0.0000000
      0.0000000	      0.0000000	      0.0000000
      0.0000000	      0.0000000	      0.0000000
      0.0000000	      0.0000000	      0.0000000
      0.0000000	      0.0000000	      0.0000000
      0.0000000	      0.0000000	      0.0000000
      0.0000000	      0.0000000	      0.0000000
      0.0000000	      0.0000000	      0.0000000
      0.0000000	      0.0000000	      0.0000000
      0.0000000	      0.0000000	      0.0000000
      0.0000000	      0.0000000	      0.0000000
      0.0000000	      0.0000000	      0.0000000
      0.0000000	      0.0000000	      0.0000000
      0.0000000	      0.0000000	      0.0000000
      0.0000000	      0.0000000	      0.0000000
      0.0000000	      0.0000000	      0.0000000
      0.0000000	      0.0000000	      0.0000000
      0.0000000	      0.0000000	      0.0000000
      0.0000000	      0.0000000	      0.0000000
      0.0000000	      0.0000000	      0.0000000
      0.0000000	      0.0000000	      0.0000000
      0.0000000	      0.0000000	      0.0000000
      0.0000000	      0.0000000	      0.0000000
      0.0000000	      0.0000000	      0.0000000
      0.0000000	      0.0000000	      0.0000000
      0.0000000	      0.0000000	      0.0000000
      0.0000000	      0.0000000	      0.0000000
      0.0000000	      0.0000000	      0.0000000
      0.0000000	      0.0000000	      0.0000000
      0.0000000	      0.0000000	      0.0000000
      0.0000000	      0.0000000	      0.0000000
      0.0000000	      0.0000000	      0.0000000
      0.0000000	      0.0000000	      0.0000000
      0.0000000	      0.0000000	      0.0000000
      0.0000000	      0.0000000	      0.0000000
      0.0000000	      0.0000000	      0.0000000
      0.0000000	      0.0000000	      0.0000000
      0.0000000	      0.0000000	      0.0000000
      0.0000000	      0.0000000	      0.0000000
      0.0000000	      0.0000000	      0.0000000
      0.0000000	      0.0000000	      0.0000000
      0.0000000	      0.0000000	      0.0000000
      0.0000000	      0.0000000	      0.0000000
      0.0000000	      0.0000000	      0.0000000
      0.0000000	      0.0000000	      0.0000000
      0.0000000	      0.0000000	      0.0000000
      0.0000000	      0.0000000	      0.0000000
      0.0000000	      0.0000000	      0.0000000
      0.0000000	      0.0000000	      0.0000000
      0.0000000	      0.0000000	      0.0000000
      0.0000000	      0.0000000	      0.0000000
      0.0000000	      0.0000000	      0.0000000
      0.0000000	      0.0000000	      0.0000000
      0.0000000	      0.0000000	      0.0000000
      0.0000000	      0.0000000	      0.0000000
      0.0000000	      0.0000000	      0.0000000
      0.0000000	      0.0000000	      0.0000000
      0.0000000	      0.0000000	      0.0000000
      0.0000000	      0.0000000	      0.0000000
      0.0000000	      0.0000000	      0.0000000
      0.0000000	      0.0000000	      0.0000000
      0.0000000	      0.0000000	      0.0000000
      0.0000000	      0.0000000	      0.0000000
      0.0000000	      0.0000000	      0.0000000
      0.0000000	      0.0000000	      0.0000000
      0.0000000	      0.0000000	      0.0000000
      0.0000000	      0.0000000	      0.0000000
      0.0000000	      0.0000000	      0.0000000
      0.0000000	      0.0000000	      0.0000000
      0.0000000	      0.0000000	      0.0000000
      0.0000000	      0.0000000	      0.0000000
      0.0000000	      0.0000000	      0.0000000
      0.0000000	      0.0000000	      0.0000000
      0.0000000	      0.0000000	      0.0000000
      0.0000000	      0.0000000	      0.0000000
      0.0000000	      0.0000000	      0.0000000
      0.0000000	      0.0000000	      0.0000000
      0.0000000	      0.0000000	      0.0000000
      0.0000000	      0.0000000	      0.0000000
      0.0000000	      0.0000000	      0.0000000
      0.0000000	      0.0000000	      0.0000000
      0.0000000	      0.0000000	      0.0000000
      0.0000000	      0.0000000	      0.0000000
      0.0000000	      0.0000000	      0.0000000
      0.0000000	      0.0000000	      0.0000000
      0.0000000	      0.0000000	      0.0000000
      0.0000000	      0.0000000	      0.0000000
      0.0000000	      0.0000000	      0.0000000
      0.0000000	      0.0000000	      0.0000000
      0.0000000	      0.0000000	      0.0000000
      0.0000000	      0.0000000	      0.0000000
      0.0000000	      0.0000000	      0.0000000
      0.0000000	      0.0000000	      0.0000000
      0.0000000	      0.0000000	      0.0000000
      0.0000000	      0.0000000	      0.0000000
      0.0000000	      0.0000000	      0.0000000
      0.0000000	      0.0000000	      0.0000000
      0.0000000	      0.0000000	      0.0000000
      0.0000000	      0.0000000	      0.0000000
      0.0000000	      0.0000000	      0.0000000
      0.0000000	      0.0000000	      0.0000000
      0.0000000	      0.0000000	      0.0000000
     -0.0121568	     -0.0151238	      0.0000000
     -0.0110675	     -0.0214594	      0.0000000
     -0.0010418	     -0.0247194	      0.0000000
      0.0101992	     -0.0260886	      0.0000000
      0.0235279	     -0.0262000	      0.0000000
      0.0361211	     -0.0254610	      0.0000000
      0.0476134	     -0.0241227	      0.0000000
      0.0569620	     -0.0224526	      0.0000000
      0.0639676	     -0.0206509	      0.0000000
      0.0684367	     -0.0188901	      0.0000000
      0.0705112	     -0.0172821	      0.0000000
      0.0703981	     -0.0158909	      0.0000000
      0.0684013	     -0.0147308	      0.0000000
      0.0648134	     -0.0137808	      0.0000000
      0.0598956	     -0.0129941	      0.0000000
      0.0538423	     -0.0123146	      0.0000000
      0.0467804	     -0.0116845	      0.0000000
      0.0387634	     -0.0110555	      0.0000000
      0.0297890	     -0.0103933	      0.0000000
      0.0198133	     -0.0096773	      0.0000000
      0.0087707	     -0.0088982	      0.0000000
     -0.0034153	     -0.0080492	      0.0000000
     -0.0168180	     -0.0071316	      0.0000000
     -0.0314934	     -0.0061581	      0.0000000
     -0.0474818	     -0.0051407	      0.0000000
     -0.0648053	     -0.0040919	      0.0000000
     -0.0834665	     -0.0030238	      0.0000000
     -0.1034497	     -0.0019489	      0.0000000
     -0.1247177	     -0.0008782	      0.0000000
     -0.1472188	      0.0001756	      0.0000000
     -0.1708730	      0.0011919	      0.0000000
     -0.1955830	      0.0021548	      0.0000000
     -0.2212334	      0.0030511	      0.0000000
     -0.2476915	      0.0038673	      0.0000000
     -0.2748082	      0.0045894	      0.0000000
     -0.3024188	      0.0052035	      0.0000000
     -0.3303439	      0.0056961	      0.0000000
     -0.3583912	      0.0060539	      0.0000000
     -0.3863563	      0.0062645	      0.0000000
     -0.4140253	      0.0063165	      0.0000000
     -0.4411754	      0.0061993	      0.0000000
     -0.4675777	      0.0059037	      0.0000000
     -0.4929980	      0.0054218	      0.0000000
     -0.5171997	      0.0047471	      0.0000000
     -0.5399444	      0.0038746	      0.0000000
     -0.5609951	      0.0028009	      0.0000000
     -0.5801153	      0.0015250	      0.0000000
     -0.5970788	      0.0000484	      0.0000000
     -0.6116548	     -0.0016169	      0.0000000
     -0.6236380	     -0.0034550	      0.0000000
     -0.6328233	     -0.0054934	      0.0000000
     -0.6389825	     -0.0077709	      0.0000000
     -0.6418803	     -0.0102714	      0.0000000
     -0.6413231	     -0.0129590	      0.0000000
     -0.6371566	     -0.0158019	      0.0000000
     -0.6292612	     -0.0187683	      0.0000000
     -0.6175539	     -0.0218256	      0.0000000
     -0.6019890	     -0.0249391	      0.0000000
     -0.5825607	     -0.0280707	      0.0000000
     -0.5593068	     -0.0311787	      0.0000000
     -0.5323116	     -0.0342177	      0.0000000
     -0.5017097	     -0.0371389	      0.0000000
     -0.4676895	     -0.0398904	      0.0000000
     -0.4304960	     -0.0424182	      0.0000000
     -0.3904328	     -0.0446668	      0.0000000
     -0.3478641	     -0.0465807	      0.0000000
     -0.3032141	     -0.0481060	      0.0000000
     -0.2569662	     -0.0491919	      0.0000000
     -0.2096595	     -0.0497933	      0.0000000
     -0.1618836	     -0.0498723	      0.0000000
     -0.1142706	     -0.0494018	      0.0000000
     -0.0674847	     -0.0483680	      0.0000000
     -0.0222073	     -0.0467726	      0.0000000
      0.0208797	     -0.0446436	      0.0000000
      0.0611156	     -0.0420302	      0.0000000
      0.0978994	     -0.0389766	      0.0000000
      0.1306861	     -0.0355545	      0.0000000
      0.1590177	     -0.0318564	      0.0000000
      0.1825430	     -0.0279830	      0.0000000
      0.2010326	     -0.0240478	      0.0000000
      0.2143939	     -0.0201665	      0.0000000
      0.2226778	     -0.0164514	      0.0000000
      0.2260747	     -0.0130076	      0.0000000
      0.2249143	     -0.0099282	      0.0000000
      0.2196436	     -0.0072859	      0.0000000
      0.2108190	     -0.0051339	      0.0000000
      0.1990455	     -0.0034485	      0.0000000
      0.1849064	     -0.0021732	      0.0000000
      0.1689625	     -0.0012878	      0.0000000
      0.1517617	     -0.0007585	      0.0000000
      0.1338026	     -0.0005451	      0.0000000
      0.1155451	     -0.0006075	      0.0000000
      0.0973926	     -0.0009136	      0.0000000
      0.0797353	     -0.0014566	      0.0000000
      0.0629294	     -0.0022510	      0.0000000
      0.0474066	     -0.0033643	      0.0000000
      0.0335789	     -0.0048161	      0.0000000
      0.0219613	     -0.0066418	      0.0000000
      0.0129248	     -0.0081799	      0.0000000
      0.0059136	     -0.0083278	      0.0000000
      0.0000000	      0.0000000	      0.0000000
      0.0000000	      0.0000000	      0.0000000
     -0.0122719	     -0.0247933	      0.0000000
     -0.0092213	     -0.0393162	      0.0000000
      0.0047346	     -0.0480004	      0.0000000
      0.0215598	     -0.0522342	      0.0000000
      0.0413977	     -0.0530649	      0.0000000
      0.0604768	     -0.0513738	      0.0000000
      0.0778523	     -0.0478845	      0.0000000
      0.0919434	     -0.0433054	      0.0000000
      0.1022578	     -0.0382219	      0.0000000
      0.1084153	     -0.0331179	      0.0000000
      0.1105092	     -0.0283291	      0.0000000
      0.1087736	     -0.0240558	      0.0000000
      0.1035976	     -0.0203669	      0.0000000
      0.0953816	     -0.0172301	      0.0000000
      0.0844955	     -0.0145393	      0.0000000
      0.0712289	     -0.0121643	      0.0000000
      0.0557771	     -0.0099601	      0.0000000
      0.0382406	     -0.0077957	      0.0000000
      0.0186379	     -0.0055727	      0.0000000
     -0.0030700	     -0.0032243	      0.0000000
     -0.0269581	     -0.0007200	      0.0000000
     -0.0531140	      0.0019500	      0.0000000
     -0.0815955	      0.0047622	      0.0000000
     -0.1124468	      0.0076842	      0.0000000
     -0.1456814	      0.0106802	      0.0000000
     -0.1812798	      0.0137115	      0.0000000
     -0.2191867	      0.0167380	      0.0000000
     -0.2593105	      0.0197186	      0.0000000
     -0.3015227	      0.0226124	      0.0000000
     -0.3456577	      0.0253744	      0.0000000
     -0.3915171	      0.0279576	      0.0000000
     -0.4388723	      0.0303207	      0.0000000
     -0.4874637	      0.0324242	      0.0000000
     -0.5370041	      0.0342301	      0.0000000
     -0.5871812	      0.0357016	      0.0000000
     -0.6376612	      0.0368035	      0.0000000
     -0.6880915	      0.0375033	      0.0000000
     -0.7381045	      0.0377711	      0.0000000
     -0.7873209	      0.0375805	      0.0000000
     -0.8353535	      0.0369085	      0.0000000
     -0.8818101	      0.0357358	      0.0000000
     -0.9262971	      0.0340473	      0.0000000
     -0.9684230	      0.0318319	      0.0000000
     -1.0078011	      0.0290825	      0.0000000
     -1.0440521	      0.0257966	      0.0000000
     -1.0768080	      0.0219757	      0.0000000
     -1.1057123	      0.0176263	      0.0000000
     -1.1304260	      0.0127589	      0.0000000
     -1.1506187	      0.0073926	      0.0000000
     -1.1659838	      0.0015502	      0.0000000
     -1.1761900	     -0.0047820	      0.0000000
     -1.1809688	     -0.0116358	      0.0000000
     -1.1800858	     -0.0189698	      0.0000000
     -1.1733517	     -0.0266950	      0.0000000
     -1.1606333	     -0.0347318	      0.0000000
     -1.1418433	     -0.0429987	      0.0000000
     -1.1169465	     -0.0514125	      0.0000000
     -1.0859600	     -0.0598847	      0.0000000
     -1.0489566	     -0.0683202	      0.0000000
     -1.0060673	     -0.0766167	      0.0000000
     -0.9574848	     -0.0846646	      0.0000000
     -0.9034669	     -0.0923471	      0.0000000
     -0.8443400	     -0.0995414	      0.0000000
     -0.7805016	     -0.1061203	      0.0000000
     -0.7124230	     -0.1119534	      0.0000000
     -0.6406510	     -0.1169103	      0.0000000
     -0.5658080	     -0.1208633	      0.0000000
     -0.4885914	     -0.1236913	      0.0000000
     -0.4097709	     -0.1252837	      0.0000000
     -0.3301835	     -0.1255459	      0.0000000
     -0.2507262	     -0.1244040	      0.0000000
     -0.1723453	     -0.1218120	      0.0000000
     -0.0960257	     -0.1177579	      0.0000000
     -0.0227625	     -0.1122734	      0.0000000
      0.0464271	     -0.1054469	      0.0000000
      0.1105911	     -0.0974131	      0.0000000
      0.1688600	     -0.0883271	      0.0000000
      0.2204619	     -0.0783979	      0.0000000
      0.2647517	     -0.0678711	      0.0000000
      0.3012370	     -0.0570207	      0.0000000
      0.3296101	     -0.0461423	      0.0000000
      0.3497637	     -0.0355329	      0.0000000
      0.3617971	     -0.0254819	      0.0000000
      0.3660279	     -0.0162571	      0.0000000
      0.3629665	     -0.0080885	      0.0000000
      0.3533331	     -0.0011427	      0.0000000
      0.3379530	      0.0045563	      0.0000000
      0.3177842	      0.0090558	      0.0000000
      0.2937539	      0.0123872	      0.0000000
      0.2667993	      0.0146224	      0.0000000
      0.2378044	      0.0158542	      0.0000000
      0.2076102	      0.0161802	      0.0000000
      0.1769842	      0.0156838	      0.0000000
      0.1466704	      0.0144008	      0.0000000
      0.1173411	      0.0123232	      0.0000000
      0.0897507	      0.0093535	      0.0000000
      0.0645227	      0.0054794	      0.0000000
      0.0425350	      0.0006875	      0.0000000
      0.0241110	     -0.0039674	      0.0000000
      0.0101443	     -0.0069932	      0.0000000
      0.0000000	      0.0000000	      0.0000000
      0.0000000	      0.0000000	      0.0000000
     -0.0108543	     -0.0336388	      0.0000000
     -0.0058162	     -0.0579378	      0.0000000
      0.0106808	     -0.0735118	      0.0000000
      0.0304363	     -0.0815498	      0.0000000
      0.0532795	     -0.0833609	      0.0000000
      0.0750739	     -0.0803443	      0.0000000
      0.0945670	     -0.0738390	      0.0000000
      0.1099166	     -0.0651235	      0.0000000
      0.1204485	     -0.0553040	      0.0000000
      0.1256550	     -0.0452824	      0.0000000
      0.1255586	     -0.0357067	      0.0000000
      0.1203598	     -0.0269741	      0.0000000
      0.1104431	     -0.0192439	      0.0000000
      0.0962213	     -0.0124864	      0.0000000
      0.0780773	     -0.0065398	      0.0000000
      0.0563309	     -0.0011740	      0.0000000
      0.0311905	      0.0038586	      0.0000000
      0.0028097	      0.0087806	      0.0000000
     -0.0287703	      0.0137638	      0.0000000
     -0.0635353	      0.0189215	      0.0000000
     -0.1015151	      0.0243079	      0.0000000
     -0.1427353	      0.0299189	      0.0000000
     -0.1872039	      0.0357120	      0.0000000
     -0.2348986	      0.0416260	      0.0000000
     -0.2857532	      0.0475860	      0.0000000
     -0.3396540	      0.0535098	      0.0000000
     -0.3964374	      0.0593119	      0.0000000
     -0.4558905	      0.0649059	      0.0000000
     -0.5177523	      0.0702058	      0.0000000
     -0.5817165	      0.0751255	      0.0000000
     -0.6474377	      0.0795803	      0.0000000
     -0.7145343	      0.0834910	      0.0000000
     -0.7825913	      0.0867837	      0.0000000
     -0.8511658	      0.0893898	      0.0000000
     -0.9197919	      0.0912460	      0.0000000
     -0.9879866	      0.0922954	      0.0000000
     -1.0552546	      0.0924877	      0.0000000
     -1.1210940	      0.0917802	      0.0000000
     -1.1850014	      0.0901379	      0.0000000
     -1.2464766	      0.0875336	      0.0000000
     -1.3050270	      0.0839483	      0.0000000
     -1.3601717	      0.0793709	      0.0000000
     -1.4114453	      0.0737982	      0.0000000
     -1.4584010	      0.0672346	      0.0000000
     -1.5006132	      0.0596921	      0.0000000
     -1.5376801	      0.0511895	      0.0000000
     -1.5692245	      0.0417524	      0.0000000
     -1.5948970	      0.0314115	      0.0000000
     -1.6143686	      0.0202019	      0.0000000
     -1.6273468	      0.0081583	      0.0000000
     -1.6335428	     -0.0047147	      0.0000000
     -1.6326860	     -0.0183799	      0.0000000
     -1.6246943	     -0.0327138	      0.0000000
     -1.6094654	     -0.0475789	      0.0000000
     -1.5869649	     -0.0628407	      0.0000000
     -1.5571943	     -0.0783631	      0.0000000
     -1.5202055	     -0.0940046	      0.0000000
     -1.4760985	     -0.1096162	      0.0000000
     -1.4250258	     -0.1250391	      0.0000000
     -1.3671943	     -0.1401047	      0.0000000
     -1.3028686	     -0.1546335	      0.0000000
     -1.2323738	     -0.1684360	      0.0000000
     -1.1560989	     -0.1813137	      0.0000000
     -1.0744999	     -0.1930607	      0.0000000
     -0.9881027	     -0.2034667	      0.0000000
     -0.8975053	     -0.2123200	      0.0000000
     -0.8033801	     -0.2194118	      0.0000000
     -0.7064737	     -0.2245416	      0.0000000
     -0.6076070	     -0.2275235	      0.0000000
     -0.5076722	     -0.2281929	      0.0000000
     -0.4076288	     -0.2264146	      0.0000000
     -0.3084961	     -0.2220922	      0.0000000
     -0.2113438	     -0.2151789	      0.0000000
     -0.1172824	     -0.2056864	      0.0000000
     -0.0274322	     -0.1937113	      0.0000000
      0.0570449	     -0.1794356	      0.0000000
      0.1350756	     -0.1631387	      0.0000000
      0.2056742	     -0.1451456	      0.0000000
      0.2679681	     -0.1258362	      0.0000000
      0.3212230	     -0.1056737	      0.0000000
      0.3648826	     -0.0851627	      0.0000000
      0.3985986	     -0.0648274	      0.0000000
      0.4222450	     -0.0451989	      0.0000000
      0.4359431	     -0.0267880	      0.0000000
      0.4400551	     -0.0100557	      0.0000000
      0.4351893	      0.0046036	      0.0000000
      0.4221930	      0.0169855	      0.0000000
      0.4021910	      0.0270684	      0.0000000
      0.3762773	      0.0348707	      0.0000000
      0.3456189	      0.0404813	      0.0000000
      0.3113564	      0.0440369	      0.0000000
      0.2746114	      0.0456927	      0.0000000
      0.2364397	      0.0455913	      0.0000000
      0.1978786	      0.0438154	      0.0000000
      0.1598680	      0.0403837	      0.0000000
      0.1234467	      0.0352036	      0.0000000
      0.0894337	      0.0282679	      0.0000000
      0.0591155	      0.0195889	      0.0000000
      0.0329493	      0.0102315	      0.0000000
      0.0133133	      0.0016237	      0.0000000
      0.0000000	      0.0000000	      0.0000000
      0.0000000	      0.0000000	      0.0000000
     -0.0092974	     -0.0457269	      0.0000000
     -0.0026614	     -0.0796479	      0.0000000
      0.0152007	     -0.1017826	      0.0000000
      0.0358470	     -0.1132558	      0.0000000
      0.0590623	     -0.1156153	      0.0000000
      0.0806183	     -0.1107487	      0.0000000
      0.0991872	     -0.1005880	      0.0000000
      0.1128501	     -0.0869939	      0.0000000
      0.1208703	     -0.0716024	      0.0000000
      0.1226798	     -0.0557483	      0.0000000
      0.1182464	     -0.0404036	      0.0000000
      0.1077166	     -0.0261714	      0.0000000
      0.0914217	     -0.0133128	      0.0000000
      0.0697193	     -0.0018075	      0.0000000
      0.0429398	      0.0085620	      0.0000000
      0.0114392	      0.0180818	      0.0000000
     -0.0245486	      0.0270752	      0.0000000
     -0.0648430	      0.0358421	      0.0000000
     -0.1093390	      0.0446197	      0.0000000
     -0.1579718	      0.0535551	      0.0000000
     -0.2106895	      0.0627141	      0.0000000
     -0.2674261	      0.0720831	      0.0000000
     -0.3280857	      0.0815900	      0.0000000
     -0.3925277	      0.0911283	      0.0000000
     -0.4605566	      0.1005705	      0.0000000
     -0.5319202	      0.1097793	      0.0000000
     -0.6063088	      0.1186139	      0.0000000
     -0.6833582	      0.1269343	      0.0000000
     -0.7626535	      0.1346040	      0.0000000
     -0.8437345	      0.1414915	      0.0000000
     -0.9261034	      0.1474721	      0.0000000
     -1.0092307	      0.1524318	      0.0000000
     -1.0925614	      0.1562666	      0.0000000
     -1.1755223	      0.1588842	      0.0000000
     -1.2575293	      0.1602041	      0.0000000
     -1.3379947	      0.1601585	      0.0000000
     -1.4163338	      0.1586925	      0.0000000
     -1.4919711	      0.1557646	      0.0000000
     -1.5643466	      0.1513464	      0.0000000
     -1.6329201	      0.1454228	      0.0000000
     -1.6971762	      0.1379910	      0.0000000
     -1.7566272	      0.1290604	      0.0000000
     -1.8108167	      0.1186515	      0.0000000
     -1.8593213	      0.1067954	      0.0000000
     -1.9017520	      0.0935328	      0.0000000
     -1.9377556	      0.0789128	      0.0000000
     -1.9670143	      0.0629923	      0.0000000
     -1.9892471	      0.0458331	      0.0000000
     -2.0042020	      0.0275024	      0.0000000
     -2.0116870	      0.0080673	      0.0000000
     -2.0114811	     -0.0124352	      0.0000000
     -2.0035022	     -0.0338621	      0.0000000
     -1.9877651	     -0.0560033	      0.0000000
     -1.9642768	     -0.0786949	      0.0000000
     -1.9330886	     -0.1017613	      0.0000000
     -1.8942789	     -0.1250247	      0.0000000
     -1.8479618	     -0.1482974	      0.0000000
     -1.7942885	     -0.1713820	      0.0000000
     -1.7334506	     -0.1940683	      0.0000000
     -1.6656824	     -0.2161333	      0.0000000
     -1.5912650	     -0.2373400	      0.0000000
     -1.5105291	     -0.2574381	      0.0000000
     -1.4238594	     -0.2761650	      0.0000000
     -1.3316986	     -0.2932475	      0.0000000
     -1.2345510	     -0.3084051	      0.0000000
     -1.1329863	     -0.3213536	      0.0000000
     -1.0276429	     -0.3318104	      0.0000000
     -0.9192302	     -0.3395007	      0.0000000
     -0.8085296	     -0.3441654	      0.0000000
     -0.6963948	     -0.3455694	      0.0000000
     -0.5837497	     -0.3435123	      0.0000000
     -0.4715842	     -0.3378397	      0.0000000
     -0.3609484	     -0.3284554	      0.0000000
     -0.2529420	     -0.3153376	      0.0000000
     -0.1487075	     -0.2985506	      0.0000000
     -0.0494050	     -0.2782862	      0.0000000
      0.0437649	     -0.2548517	      0.0000000
      0.1296530	     -0.2286952	      0.0000000
      0.2072284	     -0.2003362	      0.0000000
      0.2755579	     -0.1703595	      0.0000000
      0.3338726	     -0.1394661	      0.0000000
      0.3815803	     -0.1083919	      0.0000000
      0.4182944	     -0.0779032	      0.0000000
      0.4438792	     -0.0487637	      0.0000000
      0.4584356	     -0.0216903	      0.0000000
      0.4623722	      0.0026472	      0.0000000
      0.4562830	      0.0237297	      0.0000000
      0.4413010	      0.0413659	      0.0000000
      0.4185348	      0.0555190	      0.0000000
      0.3892336	      0.0662361	      0.0000000
      0.3546707	      0.0736562	      0.0000000
      0.3161415	      0.0779617	      0.0000000
      0.2749033	      0.0793380	      0.0000000
      0.2322191	      0.0779119	      0.0000000
      0.1892475	      0.0737327	      0.0000000
      0.1472804	      0.0667190	      0.0000000
      0.1073363	      0.0568228	      0.0000000
      0.0711154	      0.0439836	      0.0000000
      0.0393158	      0.0289545	      0.0000000
      0.0155446	      0.0127824	      0.0000000
      0.0000000	      0.0000000	      0.0000000
      0.0000000	      0.0000000	      0.0000000
     -0.0083534	     -0.0584568	      0.0000000
     -0.0009459	     -0.1018081	      0.0000000
      0.0171237	     -0.1300051	      0.0000000
      0.0370818	     -0.1442366	      0.0000000
      0.0587064	     -0.1464093	      0.0000000
      0.0777865	     -0.1389225	      0.0000000
      0.0930508	     -0.1243159	      0.0000000
      0.1026278	     -0.1050349	      0.0000000
      0.1058166	     -0.0832404	      0.0000000
      0.1020570	     -0.0606916	      0.0000000
      0.0913007	     -0.0386714	      0.0000000
      0.0736459	     -0.0179838	      0.0000000
      0.0493501	      0.0010273	      0.0000000
      0.0186788	      0.0183810	      0.0000000
     -0.0179642	      0.0342402	      0.0000000
     -0.0602659	      0.0489432	      0.0000000
     -0.1079479	      0.0629009	      0.0000000
     -0.1608140	      0.0764777	      0.0000000
     -0.2187022	      0.0899557	      0.0000000
     -0.2814654	      0.1035010	      0.0000000
     -0.3489433	      0.1171671	      0.0000000
     -0.4209406	      0.1309082	      0.0000000
     -0.4972163	      0.1446075	      0.0000000
     -0.5774741	      0.1581031	      0.0000000
     -0.6613577	      0.1712081	      0.0000000
     -0.7484514	      0.1837250	      0.0000000
     -0.8382835	      0.1954551	      0.0000000
     -0.9303309	      0.2062053	      0.0000000
     -1.0240273	      0.2157918	      0.0000000
     -1.1187704	      0.2240432	      0.0000000
     -1.2139318	      0.2308031	      0.0000000
     -1.3088654	      0.2359326	      0.0000000
     -1.4029162	      0.2393114	      0.0000000
     -1.4954289	      0.2408384	      0.0000000
     -1.5857566	      0.2404328	      0.0000000
     -1.6732681	      0.2380334	      0.0000000
     -1.7573554	      0.2335993	      0.0000000
     -1.8374392	      0.2271088	      0.0000000
     -1.9129742	      0.2185589	      0.0000000
     -1.9834529	      0.2079639	      0.0000000
     -2.0484088	      0.1953545	      0.0000000
     -2.1074176	      0.1807761	      0.0000000
     -2.1600991	      0.1642873	      0.0000000
     -2.2061167	      0.1459584	      0.0000000
     -2.2451774	      0.1258697	      0.0000000
     -2.2770307	      0.1041101	      0.0000000
     -2.3014672	      0.0807755	      0.0000000
     -2.3183171	      0.0559663	      0.0000000
     -2.3274447	      0.0297894	      0.0000000
     -2.3287846	      0.0023397	      0.0000000
     -2.3221906	     -0.0262697	      0.0000000
     -2.3077997	     -0.0557957	      0.0000000
     -2.2856478	     -0.0860037	      0.0000000
     -2.2558156	     -0.1167069	      0.0000000
     -2.2183939	     -0.1477043	      0.0000000
     -2.1734937	     -0.1787889	      0.0000000
     -2.1212468	     -0.2097406	      0.0000000
     -2.0618099	     -0.2403261	      0.0000000
     -1.9953676	     -0.2702961	      0.0000000
     -1.9221360	     -0.2993845	      0.0000000
     -1.8423673	     -0.3273076	      0.0000000
     -1.7563538	     -0.3537638	      0.0000000
     -1.6644331	     -0.3784350	      0.0000000
     -1.5669930	     -0.4009881	      0.0000000
     -1.4644764	     -0.4210784	      0.0000000
     -1.3573867	     -0.4383540	      0.0000000
     -1.2462915	     -0.4524615	      0.0000000
     -1.1318273	     -0.4630532	      0.0000000
     -1.0147016	     -0.4697964	      0.0000000
     -0.8956949	     -0.4723834	      0.0000000
     -0.7756606	     -0.4705437	      0.0000000
     -0.6555230	     -0.4640577	      0.0000000
     -0.5362728	     -0.4527722	      0.0000000
     -0.4189608	     -0.4366161	      0.0000000
     -0.3046890	     -0.4156212	      0.0000000
     -0.1945982	     -0.3899391	      0.0000000
     -0.0898720	     -0.3598790	      0.0000000
      0.0083141	     -0.3259109	      0.0000000
      0.0987035	     -0.2886337	      0.0000000
      0.1802843	     -0.2488293	      0.0000000
      0.2520714	     -0.2073280	      0.0000000
      0.3132806	     -0.1650418	      0.0000000
      0.3632905	     -0.1229667	      0.0000000
      0.4017137	     -0.0821100	      0.0000000
      0.4283846	     -0.0434569	      0.0000000
      0.4434608	     -0.0079407	      0.0000000
      0.4472511	      0.0235354	      0.0000000
      0.4406366	      0.0504729	      0.0000000
      0.4246808	      0.0727238	      0.0000000
      0.4005850	      0.0902397	      0.0000000
      0.3696498	      0.1031116	      0.0000000
      0.3332433	      0.1115080	      0.0000000
      0.2927384	      0.1156242	      0.0000000
      0.2495524	      0.1156101	      0.0000000
      0.2050155	      0.1115272	      0.0000000
      0.1606384	      0.1032880	      0.0000000
      0.1176439	      0.0907510	      0.0000000
      0.0781043	      0.0736952	      0.0000000
      0.0429871	      0.0523451	      0.0000000
      0.0167772	      0.0270914	      0.0000000
      0.0000000	      0.0000000	      0.0000000
      0.0000000	      0.0000000	      0.0000000
     -0.0079968	     -0.0720312	      0.0000000
     -0.0006915	     -0.1242872	      0.0000000
      0.0163720	     -0.1575988	      0.0000000
      0.0341499	     -0.1734974	      0.0000000
      0.0524348	     -0.1744345	      0.0000000
      0.0671088	     -0.1633801	      0.0000000
      0.0770395	     -0.1434942	      0.0000000