# vtk DataFile Version 2.0
vw
ASCII
DATASET STRUCTURED_POINTS
DIMENSIONS  102  102    1
ORIGIN      0.0000000      0.0000000      0.0000000
SPACING      0.0100000      0.0100000      0.0100000
POINT_DATA  10404
VECTORS velocity float
      0.0000000	      0.0000000	      0.0000000
      0.0000000	      0.0000000	      0.0000000
      0.0000000	      0.0000000	      0.0000000
      0.0000000	      0.0000000	      0.0000000
      0.0000000	      0.0000000	      0.0000000
      0.0000000	      0.0000000	      0.0000000
      0.0000000	      0.0000000	      0.0000000
      0.0000000	      0.0000000	      0.0000000
      0.0000000	      0.0000000	      0.0000000
      0.0000000	      0.0000000	      0.0000000
      0.0000000	      0.0000000	      0.0000000
      0.0000000	      0.0000000	      0.0000000
      0.0000000	      0.0000000	      0.0000000
      0.0000000	      0.0000000	      0.0000000
      0.0000000	      0.0000000	      0.0000000
      0.0000000	      0.0000000	      0.0000000
      0.0000000	      0.0000000	      0.0000000
      0.0000000	      0.0000000	      0.0000000
      0.0000000	      0.0000000	      0.0000000
      0.0000000	      0.0000000	      0.0000000
      0.0000000	      0.0000000	      0.0000000
      0.0000000	      0.0000000	      0.0000000
      0.0000000	      0.0000000	      0.0000000
      0.0000000	      0.0000000	      0.0000000
      0.0000000	      0.0000000	      0.0000000
      0.0000000	      0.0000000	      0.0000000
      0.0000000	      0.0000000	      0.0000000
      0.0000000	      0.0000000	      0.0000000
      0.0000000	      0.0000000	      0.0000000
      0.0000000	      0.0000000	      0.0000000
      0.0000000	      0.0000000	      0.0000000
      0.0000000	      0.0000000	      0.0000000
      0.0000000	      0.0000000	      0.0000000
      0.0000000	      0.0000000	      0.0000000
      0.0000000	      0.0000000	      0.0000000
      0.0000000	      0.0000000	      0.0000000
      0.0000000	      0.0000000	      0.0000000
      0.0000000	      0.0000000	      0.0000000
      0.0000000	      0.0000000	      0.0000000
      0.0000000	      0.0000000	      0.0000000
      0.0000000	      0.0000000	      0.0000000
      0.0000000	      0.0000000	      0.0000000
      0.0000000	      0.0000000	      0.0000000
      0.0000000	      0.0000000	      0.0000000
      0.0000000	      0.0000000	      0.0000000
      0.0000000	      0.0000000	      0.0000000
      0.0000000	      0.0000000	      0.0000000
      0.0000000	      0.0000000	      0.0000000
      0.0000000	      0.0000000	      0.0000000
      0.0000000	      0.0000000	      0.0000000
      0.0000000	      0.0000000	      0.0000000
      0.0000000	      0.0000000	      0.0000000
      0.0000000	      0.0000000	      0.0000000
      0.0000000	      0.0000000	      0.0000000
      0.0000000	      0.0000000	      0.0000000
      0.0000000	      0.0000000	      0.0000000
      0.0000000	      0.0000000	      0.0000000
      0.0000000	      0.0000000	      0.0000000
      0.0000000	      0.0000000	      0.0000000
      0.0000000	      0.0000000	      0.0000000
      0.0000000	      0.0000000	      0.0000000
      0.0000000	      0.0000000	      0.0000000
      0.0000000	      0.0000000	      0.0000000
      0.0000000	      0.0000000	      0.0000000
      0.0000000	      0.0000000	      0.0000000
      0.0000000	      0.0000000	      0.0000000
      0.0000000	      0.0000000	      0.0000000
      0.0000000	      0.0000000	      0.0000000
      0.0000000	      0.0000000	      0.0000000
      0.0000000	      0.0000000	      0.0000000
      0.0000000	      0.0000000	      0.0000000
      0.0000000	      0.0000000	      0.0000000
      0.0000000	      0.0000000	      0.0000000
      0.0000000	      0.0000000	      0.0000000
      0.0000000	      0.0000000	      0.0000000
      0.0000000	      0.0000000	      0.0000000
      0.0000000	      0.0000000	      0.0000000
      0.0000000	      0.0000000	      0.0000000
      0.0000000	      0.0000000	      0.0000000
      0.0000000	      0.0000000	      0.0000000
      0.0000000	      0.0000000	      0.0000000
      0.0000000	      0.0000000	      0.0000000
      0.0000000	      0.0000000	      0.0000000
      0.0000000	      0.0000000	      0.0000000
      0.0000000	      0.0000000	      0.0000000
      0.0000000	      0.0000000	      0.0000000
      0.0000000	      0.0000000	      0.0000000
      0.0000000	      0.0000000	      0.0000000
      0.0000000	      0.0000000	      0.0000000
      0.0000000	      0.0000000	      0.0000000
      0.0000000	      0.0000000	      0.0000000
      0.0000000	      0.0000000	      0.0000000
      0.0000000	      0.0000000	      0.0000000
      0.0000000	      0.0000000	      0.0000000
      0.0000000	      0.0000000	      0.0000000
      0.0000000	      0.0000000	      0.0000000
      0.0000000	      0.0000000	      0.0000000
      0.0000000	      0.0000000	      0.0000000
      0.0000000	      0.0000000	      0.0000000
      0.0000000	      0.0000000	      0.0000000
      0.0000000	      0.0000000	      0.0000000
      0.0000000	      0.0000000	      0.0000000
      0.0000000	      0.0000000	      0.0000000
     -0.0120255	     -0.0157959	      0.0000000
     -0.0140022	     -0.0228368	      0.0000000
     -0.0048316	     -0.0264669	      0.0000000
      0.0046867	     -0.0279906	      0.0000000
      0.0161119	     -0.0281077	      0.0000000
      0.0268088	     -0.0273010	      0.0000000
      0.0363267	     -0.0258814	      0.0000000
      0.0438901	     -0.0241207	      0.0000000
      0.0492713	     -0.0222271	      0.0000000
      0.0523778	     -0.0203611	      0.0000000
      0.0533220	     -0.0186286	      0.0000000
      0.0523063	     -0.0170861	      0.0000000
      0.0495847	     -0.0157476	      0.0000000
      0.0454088	     -0.0145949	      0.0000000
      0.0399972	     -0.0135897	      0.0000000
      0.0335175	     -0.0126856	      0.0000000
      0.0260840	     -0.0118376	      0.0000000
      0.0177599	     -0.0110064	      0.0000000
      0.0085649	     -0.0101634	      0.0000000
     -0.0015061	     -0.0092914	      0.0000000
     -0.0124741	     -0.0083848	      0.0000000
     -0.0243598	     -0.0074456	      0.0000000
     -0.0371886	     -0.0064760	      0.0000000
     -0.0509770	     -0.0054807	      0.0000000
     -0.0657274	     -0.0044721	      0.0000000
     -0.0814283	     -0.0034619	      0.0000000
     -0.0980556	     -0.0024619	      0.0000000
     -0.1155716	     -0.0014836	      0.0000000
     -0.1339255	     -0.0005377	      0.0000000
     -0.1530565	      0.0003632	      0.0000000
     -0.1728827	      0.0012023	      0.0000000
     -0.1933169	      0.0019685	      0.0000000
     -0.2142595	      0.0026510	      0.0000000
     -0.2356022	      0.0032390	      0.0000000
     -0.2572277	      0.0037223	      0.0000000
     -0.2790107	      0.0040907	      0.0000000
     -0.3008188	      0.0043348	      0.0000000
     -0.3225130	      0.0044457	      0.0000000
     -0.3439487	      0.0044153	      0.0000000
     -0.3649770	      0.0042361	      0.0000000
     -0.3854448	      0.0039017	      0.0000000
     -0.4051963	      0.0034066	      0.0000000
     -0.4240734	      0.0027461	      0.0000000
     -0.4419170	      0.0019166	      0.0000000
     -0.4585666	      0.0009160	      0.0000000
     -0.4738661	     -0.0002561	      0.0000000
     -0.4876531	     -0.0015923	      0.0000000
     -0.4997823	     -0.0030875	      0.0000000
     -0.5101117	     -0.0047458	      0.0000000
     -0.5184917	     -0.0065911	      0.0000000
     -0.5247457	     -0.0086379	      0.0000000
     -0.5286940	     -0.0108722	      0.0000000
     -0.5301821	     -0.0132728	      0.0000000
     -0.5290775	     -0.0158183	      0.0000000
     -0.5252686	     -0.0184862	      0.0000000
     -0.5186652	     -0.0212529	      0.0000000
     -0.5091993	     -0.0240927	      0.0000000
     -0.4968275	     -0.0269769	      0.0000000
     -0.4815331	     -0.0298737	      0.0000000
     -0.4633298	     -0.0327480	      0.0000000
     -0.4422641	     -0.0355612	      0.0000000
     -0.4184188	     -0.0382720	      0.0000000
     -0.3919163	     -0.0408363	      0.0000000
     -0.3629208	     -0.0432077	      0.0000000
     -0.3316412	     -0.0453388	      0.0000000
     -0.2983320	     -0.0471819	      0.0000000
     -0.2632945	     -0.0486902	      0.0000000
     -0.2268763	     -0.0498196	      0.0000000
     -0.1894692	     -0.0505298	      0.0000000
     -0.1515060	     -0.0507867	      0.0000000
     -0.1134555	     -0.0505636	      0.0000000
     -0.0758150	     -0.0498443	      0.0000000
     -0.0391014	     -0.0486248	      0.0000000
     -0.0038354	     -0.0469146	      0.0000000
      0.0294628	     -0.0447458	      0.0000000
      0.0603119	     -0.0421632	      0.0000000
      0.0882692	     -0.0392116	      0.0000000
      0.1129440	     -0.0359614	      0.0000000
      0.1340161	     -0.0324924	      0.0000000
      0.1512528	     -0.0288952	      0.0000000
      0.1645181	     -0.0252650	      0.0000000
      0.1737788	     -0.0216972	      0.0000000
      0.1791068	     -0.0182838	      0.0000000
      0.1806760	     -0.0151086	      0.0000000
      0.1787559	     -0.0122438	      0.0000000
      0.1736973	     -0.0097452	      0.0000000
      0.1659191	     -0.0076500	      0.0000000
      0.1558824	     -0.0059642	      0.0000000
      0.1440408	     -0.0046628	      0.0000000
      0.1308193	     -0.0037143	      0.0000000
      0.1166273	     -0.0030929	      0.0000000
      0.1018558	     -0.0027788	      0.0000000
      0.0868747	     -0.0027561	      0.0000000
      0.0720451	     -0.0030225	      0.0000000
      0.0577235	     -0.0035915	      0.0000000
      0.0443061	     -0.0044942	      0.0000000
      0.0321859	     -0.0057244	      0.0000000
      0.0217940	     -0.0071986	      0.0000000
      0.0133925	     -0.0083132	      0.0000000
      0.0063422	     -0.0079526	      0.0000000
      0.0000000	      0.0000000	      0.0000000
      0.0000000	      0.0000000	      0.0000000
     -0.0131002	     -0.0270115	      0.0000000
     -0.0139468	     -0.0417095	      0.0000000
     -0.0021957	     -0.0501741	      0.0000000
      0.0112743	     -0.0540643	      0.0000000
      0.0274420	     -0.0546093	      0.0000000
      0.0428503	     -0.0527775	      0.0000000
      0.0565294	     -0.0493252	      0.0000000
      0.0672549	     -0.0449201	      0.0000000
      0.0745350	     -0.0400998	      0.0000000
      0.0781255	     -0.0352810	      0.0000000
      0.0780932	     -0.0307466	      0.0000000
      0.0746651	     -0.0266560	      0.0000000
      0.0681662	     -0.0230602	      0.0000000
      0.0589404	     -0.0199274	      0.0000000
      0.0473022	     -0.0171739	      0.0000000
      0.0335067	     -0.0146944	      0.0000000
      0.0177401	     -0.0123842	      0.0000000
      0.0001229	     -0.0101443	      0.0000000
     -0.0192845	     -0.0079042	      0.0000000
     -0.0404457	     -0.0056246	      0.0000000
     -0.0633548	     -0.0032863	      0.0000000
     -0.0880081	     -0.0008865	      0.0000000
     -0.1144153	      0.0015722	      0.0000000
     -0.1425403	      0.0040583	      0.0000000
     -0.1723426	      0.0065427	      0.0000000
     -0.2037557	      0.0089956	      0.0000000
     -0.2366918	      0.0113865	      0.0000000
     -0.2710399	      0.0136848	      0.0000000
     -0.3066663	      0.0158595	      0.0000000
     -0.3434158	      0.0178775	      0.0000000
     -0.3811149	      0.0197074	      0.0000000
     -0.4195735	      0.0213222	      0.0000000
     -0.4585846	      0.0226961	      0.0000000
     -0.4979274	      0.0238044	      0.0000000
     -0.5373692	      0.0246240	      0.0000000
     -0.5766671	      0.0251332	      0.0000000
     -0.6155703	      0.0253122	      0.0000000
     -0.6538217	      0.0251435	      0.0000000
     -0.6911601	      0.0246113	      0.0000000
     -0.7273217	      0.0237023	      0.0000000
     -0.7620416	      0.0224056	      0.0000000
     -0.7950558	      0.0207123	      0.0000000
     -0.8261026	      0.0186163	      0.0000000
     -0.8549236	      0.0161137	      0.0000000
     -0.8812655	      0.0132037	      0.0000000
     -0.9048819	      0.0098881	      0.0000000
     -0.9255309	      0.0061759	      0.0000000
     -0.9429766	      0.0020781	      0.0000000
     -0.9569830	     -0.0023993	      0.0000000
     -0.9673202	     -0.0072845	      0.0000000
     -0.9737875	     -0.0126062	      0.0000000
     -0.9761703	     -0.0183350	      0.0000000
     -0.9742966	     -0.0244163	      0.0000000
     -0.9680264	     -0.0307979	      0.0000000
     -0.9572508	     -0.0374263	      0.0000000
     -0.9418936	     -0.0442455	      0.0000000
     -0.9219124	     -0.0511948	      0.0000000
     -0.8973007	     -0.0582076	      0.0000000
     -0.8680913	     -0.0652112	      0.0000000
     -0.8343587	     -0.0721255	      0.0000000
     -0.7962228	     -0.0788641	      0.0000000
     -0.7538521	     -0.0853339	      0.0000000
     -0.7074668	     -0.0914364	      0.0000000
     -0.6573419	     -0.0970686	      0.0000000
     -0.6038092	     -0.1021245	      0.0000000
     -0.5472597	     -0.1064975	      0.0000000
     -0.4881441	     -0.1100827	      0.0000000
     -0.4269727	     -0.1127796	      0.0000000
     -0.3643139	     -0.1144957	      0.0000000
     -0.3007909	     -0.1151501	      0.0000000
     -0.2370767	     -0.1146778	      0.0000000
     -0.1738872	     -0.1130336	      0.0000000
     -0.1119704	     -0.1101981	      0.0000000
     -0.0520974	     -0.1061809	      0.0000000
      0.0049669	     -0.1010323	      0.0000000
      0.0584326	     -0.0948417	      0.0000000
      0.1076183	     -0.0877329	      0.0000000
      0.1518768	     -0.0798393	      0.0000000
      0.1906531	     -0.0713444	      0.0000000
      0.2234985	     -0.0624546	      0.0000000
      0.2500934	     -0.0533919	      0.0000000
      0.2702593	     -0.0443857	      0.0000000
      0.2839713	     -0.0356636	      0.0000000
      0.2913609	     -0.0274401	      0.0000000
      0.2927158	     -0.0199075	      0.0000000
      0.2884654	     -0.0132244	      0.0000000
      0.2791722	     -0.0075118	      0.0000000
      0.2654996	     -0.0028070	      0.0000000
      0.2481499	      0.0009310	      0.0000000
      0.2278281	      0.0037429	      0.0000000
      0.2052646	      0.0056646	      0.0000000
      0.1811575	      0.0067431	      0.0000000
      0.1561824	      0.0070181	      0.0000000
      0.1309983	      0.0065050	      0.0000000
      0.1062402	      0.0051889	      0.0000000
      0.0825759	      0.0030205	      0.0000000
      0.0606013	      0.0000193	      0.0000000
      0.0410542	     -0.0036836	      0.0000000
      0.0241751	     -0.0071221	      0.0000000
      0.0108452	     -0.0088296	      0.0000000
      0.0000000	      0.0000000	      0.0000000
      0.0000000	      0.0000000	      0.0000000
     -0.0123999	     -0.0349896	      0.0000000
     -0.0120788	     -0.0587293	      0.0000000
      0.0009190	     -0.0734982	      0.0000000
      0.0159452	     -0.0807167	      0.0000000
      0.0336822	     -0.0819985	      0.0000000
      0.0504012	     -0.0788242	      0.0000000
      0.0648735	     -0.0725396	      0.0000000
      0.0756575	     -0.0643400	      0.0000000
      0.0821045	     -0.0552236	      0.0000000
      0.0838630	     -0.0459698	      0.0000000
      0.0809391	     -0.0371225	      0.0000000
      0.0735336	     -0.0290024	      0.0000000
      0.0619726	     -0.0217349	      0.0000000
      0.0466172	     -0.0152920	      0.0000000
      0.0278067	     -0.0095486	      0.0000000
      0.0058342	     -0.0043249	      0.0000000
     -0.0190793	      0.0005564	      0.0000000
     -0.0467660	      0.0052541	      0.0000000
     -0.0770815	      0.0098780	      0.0000000
     -0.1099424	      0.0145027	      0.0000000
     -0.1452819	      0.0191660	      0.0000000
     -0.1830386	      0.0238725	      0.0000000
     -0.2231383	      0.0285938	      0.0000000
     -0.2654850	      0.0332814	      0.0000000
     -0.3099612	      0.0378829	      0.0000000
     -0.3564184	      0.0423404	      0.0000000
     -0.4046788	      0.0465949	      0.0000000
     -0.4545356	      0.0505872	      0.0000000
     -0.5057549	      0.0542596	      0.0000000
     -0.5580786	      0.0575555	      0.0000000
     -0.6112286	      0.0604213	      0.0000000
     -0.6649082	      0.0628089	      0.0000000
     -0.7188052	      0.0646738	      0.0000000
     -0.7725948	      0.0659759	      0.0000000
     -0.8259434	      0.0666789	      0.0000000
     -0.8785113	      0.0667510	      0.0000000
     -0.9299556	      0.0661645	      0.0000000
     -0.9799335	      0.0648965	      0.0000000
     -1.0281042	      0.0629283	      0.0000000
     -1.0741316	      0.0602460	      0.0000000
     -1.1176864	      0.0568398	      0.0000000
     -1.1584474	      0.0527046	      0.0000000
     -1.1961038	      0.0478393	      0.0000000
     -1.2303562	      0.0422471	      0.0000000
     -1.2609176	      0.0359353	      0.0000000
     -1.2875146	      0.0289151	      0.0000000
     -1.3098860	      0.0212015	      0.0000000
     -1.3277800	      0.0128096	      0.0000000
     -1.3409728	      0.0037546	      0.0000000
     -1.3492063	     -0.0059778	      0.0000000
     -1.3522845	     -0.0163861	      0.0000000
     -1.3500829	     -0.0274001	      0.0000000
     -1.3424808	     -0.0389288	      0.0000000
     -1.3293983	     -0.0508830	      0.0000000
     -1.3107833	     -0.0631709	      0.0000000
     -1.2866164	     -0.0756963	      0.0000000
     -1.2569123	     -0.0883557	      0.0000000
     -1.2217215	     -0.1010370	      0.0000000
     -1.1811332	     -0.1136187	      0.0000000
     -1.1352779	     -0.1259691	      0.0000000
     -1.0843298	     -0.1379464	      0.0000000
     -1.0285104	     -0.1493992	      0.0000000
     -0.9680910	     -0.1601678	      0.0000000
     -0.9033960	     -0.1700854	      0.0000000
     -0.8348052	     -0.1789804	      0.0000000
     -0.7627563	     -0.1866794	      0.0000000
     -0.6877464	     -0.1930107	      0.0000000
     -0.6103330	     -0.1978084	      0.0000000
     -0.5311334	     -0.2009172	      0.0000000
     -0.4508234	     -0.2021980	      0.0000000
     -0.3701341	     -0.2015341	      0.0000000
     -0.2898468	     -0.1988378	      0.0000000
     -0.2107855	     -0.1940578	      0.0000000
     -0.1338085	     -0.1871871	      0.0000000
     -0.0597950	     -0.1782706	      0.0000000
      0.0103750	     -0.1674267	      0.0000000
      0.0757927	     -0.1548407	      0.0000000
      0.1356835	     -0.1407555	      0.0000000
      0.1893067	     -0.1254395	      0.0000000
      0.2360347	     -0.1092351	      0.0000000
      0.2753615	     -0.0925155	      0.0000000
      0.3069248	     -0.0756775	      0.0000000
      0.3305278	     -0.0591291	      0.0000000
      0.3461521	     -0.0432689	      0.0000000
      0.3539656	     -0.0284695	      0.0000000
      0.3543130	     -0.0150576	      0.0000000
      0.3477341	     -0.0033033	      0.0000000
      0.3348809	      0.0066413	      0.0000000
      0.3166116	      0.0147632	      0.0000000
      0.2938123	      0.0210787	      0.0000000
      0.2673870	      0.0256278	      0.0000000
      0.2382494	      0.0284795	      0.0000000
      0.2072986	      0.0296991	      0.0000000
      0.1754251	      0.0293239	      0.0000000
      0.1434866	      0.0273540	      0.0000000
      0.1123807	      0.0237507	      0.0000000
      0.0828863	      0.0185545	      0.0000000
      0.0560973	      0.0119338	      0.0000000
      0.0323414	      0.0049060	      0.0000000
      0.0140961	     -0.0011659	      0.0000000
      0.0000000	      0.0000000	      0.0000000
      0.0000000	      0.0000000	      0.0000000
     -0.0114647	     -0.0460124	      0.0000000
     -0.0102946	     -0.0783391	      0.0000000
      0.0029518	     -0.0988504	      0.0000000
      0.0177111	     -0.1089453	      0.0000000
      0.0346502	     -0.1105231	      0.0000000
      0.0500335	     -0.1055393	      0.0000000
      0.0625919	     -0.0958893	      0.0000000
      0.0708359	     -0.0832909	      0.0000000
      0.0740678	     -0.0692035	      0.0000000
      0.0718882	     -0.0547772	      0.0000000
      0.0642589	     -0.0408267	      0.0000000
      0.0513387	     -0.0278457	      0.0000000
      0.0334155	     -0.0160430	      0.0000000
      0.0108217	     -0.0053986	      0.0000000
     -0.0161333	      0.0042457	      0.0000000
     -0.0471237	      0.0131024	      0.0000000
     -0.0818477	      0.0213935	      0.0000000
     -0.1200810	      0.0293194	      0.0000000
     -0.1616385	      0.0370382	      0.0000000
     -0.2063702	      0.0446565	      0.0000000
     -0.2541339	      0.0522204	      0.0000000
     -0.3047809	      0.0597258	      0.0000000
     -0.3581432	      0.0671280	      0.0000000
     -0.4140285	      0.0743535	      0.0000000
     -0.4722156	      0.0813177	      0.0000000
     -0.5324503	      0.0879298	      0.0000000
     -0.5944476	      0.0940980	      0.0000000
     -0.6578931	      0.0997328	      0.0000000
     -0.7224467	      0.1047484	      0.0000000
     -0.7877469	      0.1090644	      0.0000000
     -0.8534151	      0.1126070	      0.0000000
     -0.9190597	      0.1153104	      0.0000000
     -0.9842797	      0.1171164	      0.0000000
     -1.0486694	      0.1179747	      0.0000000
     -1.1118222	      0.1178427	      0.0000000
     -1.1733349	      0.1166855	      0.0000000
     -1.2328106	      0.1144758	      0.0000000
     -1.2898622	      0.1111941	      0.0000000
     -1.3441151	      0.1068278	      0.0000000
     -1.3952094	      0.1013714	      0.0000000
     -1.4428016	      0.0948261	      0.0000000
     -1.4865664	      0.0871992	      0.0000000
     -1.5261977	      0.0785038	      0.0000000
     -1.5614091	      0.0687583	      0.0000000
     -1.5919347	      0.0579863	      0.0000000
     -1.6175290	      0.0462152	      0.0000000
     -1.6379655	      0.0334758	      0.0000000
     -1.6530354	      0.0198003	      0.0000000
     -1.6625723	      0.0052176	      0.0000000
     -1.6663614	     -0.0102656	      0.0000000
     -1.6643018	     -0.0265814	      0.0000000
     -1.6563589	     -0.0436041	      0.0000000
     -1.6424906	     -0.0612197	      0.0000000
     -1.6226881	     -0.0793094	      0.0000000
     -1.5969623	     -0.0977500	      0.0000000
     -1.5653494	     -0.1164109	      0.0000000
     -1.5279118	     -0.1351520	      0.0000000
     -1.4847412	     -0.1538222	      0.0000000
     -1.4359599	     -0.1722580	      0.0000000
     -1.3817242	     -0.1902831	      0.0000000
     -1.3222268	     -0.2077081	      0.0000000
     -1.2577001	     -0.2243310	      0.0000000
     -1.1884195	     -0.2399384	      0.0000000
     -1.1147068	     -0.2543073	      0.0000000
     -1.0369332	     -0.2672073	      0.0000000
     -0.9555227	     -0.2784045	      0.0000000
     -0.8709547	     -0.2876654	      0.0000000
     -0.7837659	     -0.2947623	      0.0000000
     -0.6945519	     -0.2994790	      0.0000000
     -0.6039668	     -0.3016182	      0.0000000
     -0.5127225	     -0.3010087	      0.0000000
     -0.4215854	     -0.2975148	      0.0000000
     -0.3313719	     -0.2910446	      0.0000000
     -0.2429421	     -0.2815611	      0.0000000
     -0.1571886	     -0.2690925	      0.0000000
     -0.0750317	     -0.2537461	      0.0000000
      0.0026164	     -0.2357365	      0.0000000
      0.0747702	     -0.2153513	      0.0000000
      0.1406285	     -0.1929952	      0.0000000
      0.1994001	     -0.1690999	      0.0000000
      0.2504242	     -0.1441696	      0.0000000
      0.2931616	     -0.1187594	      0.0000000
      0.3272277	     -0.0934539	      0.0000000
      0.3524142	     -0.0688412	      0.0000000
      0.3687048	     -0.0454892	      0.0000000
      0.3762733	     -0.0239211	      0.0000000
      0.3755252	     -0.0045891	      0.0000000
      0.3669914	      0.0121536	      0.0000000
      0.3515418	      0.0261512	      0.0000000
      0.3301079	      0.0373730	      0.0000000
      0.3036749	      0.0458310	      0.0000000
      0.2732780	      0.0515858	      0.0000000
      0.2399626	      0.0547095	      0.0000000
      0.2047855	      0.0552534	      0.0000000
      0.1687779	      0.0532284	      0.0000000
      0.1330347	      0.0485976	      0.0000000
      0.0985169	      0.0413742	      0.0000000
      0.0666724	      0.0316676	      0.0000000
      0.0380215	      0.0202514	      0.0000000
      0.0163097	      0.0081732	      0.0000000
      0.0000000	      0.0000000	      0.0000000
      0.0000000	      0.0000000	      0.0000000
     -0.0109854	     -0.0571030	      0.0000000
     -0.0096981	     -0.0974624	      0.0000000
      0.0027684	     -0.1230406	      0.0000000
      0.0158408	     -0.1353071	      0.0000000
      0.0302221	     -0.1365014	      0.0000000
      0.0422819	     -0.1290525	      0.0000000
      0.0508367	     -0.1153922	      0.0000000
      0.0544643	     -0.0977485	      0.0000000
      0.0525077	     -0.0780308	      0.0000000
      0.0445799	     -0.0577508	      0.0000000
      0.0306278	     -0.0379813	      0.0000000
      0.0107834	     -0.0193763	      0.0000000
     -0.0147203	     -0.0022324	      0.0000000
     -0.0456150	      0.0134524	      0.0000000
     -0.0814932	      0.0277923	      0.0000000
     -0.1220130	      0.0410132	      0.0000000
     -0.1668636	      0.0533915	      0.0000000
     -0.2157797	      0.0651842	      0.0000000
     -0.2685217	      0.0765821	      0.0000000
     -0.3248612	      0.0877020	      0.0000000
     -0.3845623	      0.0985848	      0.0000000
     -0.4473719	      0.1092081	      0.0000000
     -0.5130105	      0.1195007	      0.0000000
     -0.5811709	      0.1293604	      0.0000000
     -0.6515152	      0.1386697	      0.0000000
     -0.7236756	      0.1473052	      0.0000000
     -0.7972569	      0.1551448	      0.0000000
     -0.8718401	      0.1620715	      0.0000000
     -0.9469876	      0.1679769	      0.0000000
     -1.0222487	      0.1727622	      0.0000000
     -1.0971645	      0.1763405	      0.0000000
     -1.1712736	      0.1786368	      0.0000000
     -1.2441167	      0.1795886	      0.0000000
     -1.3152415	      0.1791458	      0.0000000
     -1.3842071	      0.1772701	      0.0000000
     -1.4505879	      0.1739349	      0.0000000
     -1.5139773	      0.1691247	      0.0000000
     -1.5739900	      0.1628346	      0.0000000
     -1.6302645	      0.1550693	      0.0000000
     -1.6824646	      0.1458425	      0.0000000
     -1.7302803	      0.1351761	      0.0000000
     -1.7734285	      0.1230994	      0.0000000
     -1.8116531	      0.1096482	      0.0000000
     -1.8447245	      0.0948639	      0.0000000
     -1.8724396	      0.0787929	      0.0000000
     -1.8946206	      0.0614855	      0.0000000
     -1.9111133	      0.0429947	      0.0000000
     -1.9217872	      0.0233758	      0.0000000
     -1.9265631	      0.0026774	      0.0000000
     -1.9252773	     -0.0190540	      0.0000000
     -1.9179898	     -0.0416774	      0.0000000
     -1.9047056	     -0.0650319	      0.0000000
     -1.8854512	     -0.0889887	      0.0000000
     -1.8602655	     -0.1134095	      0.0000000
     -1.8291996	     -0.1381492	      0.0000000
     -1.7923196	     -0.1630524	      0.0000000
     -1.7497081	     -0.1879517	      0.0000000
     -1.7014673	     -0.2126658	      0.0000000
     -1.6477212	     -0.2369982	      0.0000000
     -1.5886185	     -0.2607367	      0.0000000
     -1.5243362	     -0.2836522	      0.0000000
     -1.4550834	     -0.3055000	      0.0000000
     -1.3811048	     -0.3260199	      0.0000000
     -1.3026850	     -0.3449388	      0.0000000
     -1.2201527	     -0.3619727	      0.0000000
     -1.1338848	     -0.3768315	      0.0000000
     -1.0443099	     -0.3892228	      0.0000000
     -0.9519117	     -0.3988584	      0.0000000
     -0.8572318	     -0.4054616	      0.0000000
     -0.7608706	     -0.4087748	      0.0000000
     -0.6634882	     -0.4085692	      0.0000000
     -0.5658031	     -0.4046552	      0.0000000
     -0.4685891	     -0.3968934	      0.0000000
     -0.3726704	     -0.3852069	      0.0000000
     -0.2789150	     -0.3695938	      0.0000000
     -0.1882253	     -0.3501434	      0.0000000
     -0.1015336	     -0.3270455	      0.0000000
     -0.0197703	     -0.3006312	      0.0000000
      0.0560705	     -0.2713285	      0.0000000
      0.1251265	     -0.2397056	      0.0000000
      0.1865996	     -0.2063834	      0.0000000
      0.2398012	     -0.1720390	      0.0000000
      0.2841792	     -0.1374263	      0.0000000
      0.3193410	     -0.1033172	      0.0000000
      0.3450761	     -0.0704772	      0.0000000
      0.3613653	     -0.0396395	      0.0000000
      0.3684259	     -0.0114630	      0.0000000
      0.3666332	      0.0134438	      0.0000000
      0.3566972	      0.0347075	      0.0000000
      0.3395363	      0.0522020	      0.0000000
      0.3161243	      0.0658695	      0.0000000
      0.2875387	      0.0757278	      0.0000000
      0.2548991	      0.0818287	      0.0000000
      0.2193689	      0.0842153	      0.0000000
      0.1821079	      0.0828904	      0.0000000
      0.1443766	      0.0777940	      0.0000000
      0.1073104	      0.0688611	      0.0000000
      0.0726706	      0.0560513	      0.0000000
      0.0411884	      0.0397090	      0.0000000
      0.0175056	      0.0203301	      0.0000000
      0.0000000	      0.0000000	      0.0000000
      0.0000000	      0.0000000	      0.0000000
     -0.0110745	     -0.0685234	      0.0000000
     -0.0104497	     -0.1161017	      0.0000000
      0.0001666	     -0.1456919	      0.0000000
      0.0102434	     -0.1590635	      0.0000000
      0.0205522	     -0.1589303	      0.0000000
      0.0276332	     -0.1482180	      0.0000000
      0.0304674	     -0.1298852	      0.0000000