# vtk DataFile Version 2.0
vw
ASCII
DATASET STRUCTURED_POINTS
DIMENSIONS  102  102    1
ORIGIN      0.0000000      0.0000000      0.0000000
SPACING      0.0100000      0.0100000      0.0100000
POINT_DATA  10404
VECTORS velocity float
      0.0000000	      0.0000000	      0.0000000
      0.0000000	      0.0000000	      0.0000000
      0.0000000	      0.0000000	      0.0000000
      0.0000000	      0.0000000	      0.0000000
      0.0000000	      0.0000000	      0.0000000
      0.0000000	      0.0000000	      0.0000000
      0.0000000	      0.0000000	      0.0000000
      0.0000000	      0.0000000	      0.0000000
      0.0000000	      0.0000000	      0.0000000
      0.0000000	      0.0000000	      0.0000000
      0.0000000	      0.0000000	      0.0000000
      0.0000000	      0.0000000	      0.0000000
      0.0000000	      0.0000000	      0.0000000
      0.0000000	      0.0000000	      0.0000000
      0.0000000	      0.0000000	      0.0000000
      0.0000000	      0.0000000	      0.0000000
      0.0000000	      0.0000000	      0.0000000
      0.0000000	      0.0000000	      0.0000000
      0.0000000	      0.0000000	      0.0000000
      0.0000000	      0.0000000	      0.0000000
      0.0000000	      0.0000000	      0.0000000
      0.0000000	      0.0000000	      0.0000000
      0.0000000	      0.0000000	      0.0000000
      0.0000000	      0.0000000	      0.0000000
      0.0000000	      0.0000000	      0.0000000
      0.0000000	      0.0000000	      0.0000000
      0.0000000	      0.0000000	      0.0000000
      0.0000000	      0.0000000	      0.0000000
      0.0000000	      0.0000000	      0.0000000
      0.0000000	      0.0000000	      0.0000000
      0.0000000	      0.0000000	      0.0000000
      0.0000000	      0.0000000	      0.0000000
      0.0000000	      0.0000000	      0.0000000
      0.0000000	      0.0000000	      0.0000000
      0.0000000	      0.0000000	      0.0000000
      0.0000000	      0.0000000	      0.0000000
      0.0000000	      0.0000000	      0.0000000
      0.0000000	      0.0000000	      0.0000000
      0.0000000	      0.0000000	      0.0000000
      0.0000000	      0.0000000	      0.0000000
      0.0000000	      0.0000000	      0.0000000
      0.0000000	      0.0000000	      0.0000000
      0.0000000	      0.0000000	      0.0000000
      0.0000000	      0.0000000	      0.0000000
      0.0000000	      0.0000000	      0.0000000
      0.0000000	      0.0000000	      0.0000000
      0.0000000	      0.0000000	      0.0000000
      0.0000000	      0.0000000	      0.0000000
      0.0000000	      0.0000000	      0.0000000
      0.0000000	      0.0000000	      0.0000000
      0.0000000	      0.0000000	      0.0000000
      0.0000000	      0.0000000	      0.0000000
      0.0000000	      0.0000000	      0.0000000
      0.0000000	      0.0000000	      0.0000000
      0.0000000	      0.0000000	      0.0000000
      0.0000000	      0.0000000	      0.0000000
      0.0000000	      0.0000000	      0.0000000
      0.0000000	      0.0000000	      0.0000000
      0.0000000	      0.0000000	      0.0000000
      0.0000000	      0.0000000	      0.0000000
      0.0000000	      0.0000000	      0.0000000
      0.0000000	      0.0000000	      0.0000000
      0.0000000	      0.0000000	      0.0000000
      0.0000000	      0.0000000	      0.0000000
      0.0000000	      0.0000000	      0.0000000
      0.0000000	      0.0000000	      0.0000000
      0.0000000	      0.0000000	      0.0000000
      0.0000000	      0.0000000	      0.0000000
      0.0000000	      0.0000000	      0.0000000
      0.0000000	      0.0000000	      0.0000000
      0.0000000	      0.0000000	      0.0000000
      0.0000000	      0.0000000	      0.0000000
      0.0000000	      0.0000000	      0.0000000
      0.0000000	      0.0000000	      0.0000000
      0.0000000	      0.0000000	      0.0000000
      0.0000000	      0.0000000	      0.0000000
      0.0000000	      0.0000000	      0.0000000
      0.0000000	      0.0000000	      0.0000000
      0.0000000	      0.0000000	      0.0000000
      0.0000000	      0.0000000	      0.0000000
      0.0000000	      0.0000000	      0.0000000
      0.0000000	      0.0000000	      0.0000000
      0.0000000	      0.0000000	      0.0000000
      0.0000000	      0.0000000	      0.0000000
      0.0000000	      0.0000000	      0.0000000
      0.0000000	      0.0000000	      0.0000000
      0.0000000	      0.0000000	      0.0000000
      0.0000000	      0.0000000	      0.0000000
      0.0000000	      0.0000000	      0.0000000
      0.0000000	      0.0000000	      0.0000000
      0.0000000	      0.0000000	      0.0000000
      0.0000000	      0.0000000	      0.0000000
      0.0000000	      0.0000000	      0.0000000
      0.0000000	      0.0000000	      0.0000000
      0.0000000	      0.0000000	      0.0000000
      0.0000000	      0.0000000	      0.0000000
      0.0000000	      0.0000000	      0.0000000
      0.0000000	      0.0000000	      0.0000000
      0.0000000	      0.0000000	      0.0000000
      0.0000000	      0.0000000	      0.0000000
      0.0000000	      0.0000000	      0.0000000
      0.0000000	      0.0000000	      0.0000000
      0.0000000	      0.0000000	      0.0000000
     -0.0121816	     -0.0151541	      0.0000000
     -0.0110871	     -0.0215052	      0.0000000
     -0.0010342	     -0.0247746	      0.0000000
      0.0102394	     -0.0261484	      0.0000000
      0.0236064	     -0.0262604	      0.0000000
      0.0362362	     -0.0255190	      0.0000000
      0.0477609	     -0.0241763	      0.0000000
      0.0571351	     -0.0225006	      0.0000000
      0.0641583	     -0.0206930	      0.0000000
      0.0686374	     -0.0189269	      0.0000000
      0.0707147	     -0.0173143	      0.0000000
      0.0705990	     -0.0159199	      0.0000000
      0.0685953	     -0.0147577	      0.0000000
      0.0649980	     -0.0138064	      0.0000000
      0.0600692	     -0.0130193	      0.0000000
      0.0540041	     -0.0123396	      0.0000000
      0.0469301	     -0.0117095	      0.0000000
      0.0389007	     -0.0110804	      0.0000000
      0.0299134	     -0.0104178	      0.0000000
      0.0199238	     -0.0097011	      0.0000000
      0.0088661	     -0.0089209	      0.0000000
     -0.0033366	     -0.0080705	      0.0000000
     -0.0167582	     -0.0071513	      0.0000000
     -0.0314547	     -0.0061760	      0.0000000
     -0.0474667	     -0.0051566	      0.0000000
     -0.0648163	     -0.0041057	      0.0000000
     -0.0835061	     -0.0030355	      0.0000000
     -0.1035205	     -0.0019585	      0.0000000
     -0.1248221	     -0.0008856	      0.0000000
     -0.1473591	      0.0001703	      0.0000000
     -0.1710514	      0.0011887	      0.0000000
     -0.1958015	      0.0021537	      0.0000000
     -0.2214938	      0.0030519	      0.0000000
     -0.2479953	      0.0038698	      0.0000000
     -0.2751566	      0.0045935	      0.0000000
     -0.3028128	      0.0052091	      0.0000000
     -0.3307841	      0.0057029	      0.0000000
     -0.3588778	      0.0060617	      0.0000000
     -0.3868893	      0.0062730	      0.0000000
     -0.4146043	      0.0063254	      0.0000000
     -0.4417997	      0.0062083	      0.0000000
     -0.4682461	      0.0059126	      0.0000000
     -0.4937091	      0.0054303	      0.0000000
     -0.5179517	      0.0047548	      0.0000000
     -0.5407351	      0.0038812	      0.0000000
     -0.5618220	      0.0028060	      0.0000000
     -0.5809757	      0.0015284	      0.0000000
     -0.5979695	      0.0000498	      0.0000000
     -0.6125724	     -0.0016179	      0.0000000
     -0.6245787	     -0.0034587	      0.0000000
     -0.6337832	     -0.0055000	      0.0000000
     -0.6399572	     -0.0077810	      0.0000000
     -0.6428650	     -0.0102854	      0.0000000
     -0.6423127	     -0.0129773	      0.0000000
     -0.6381457	     -0.0158249	      0.0000000
     -0.6302441	     -0.0187962	      0.0000000
     -0.6185248	     -0.0218587	      0.0000000
     -0.6029418	     -0.0249777	      0.0000000
     -0.5834892	     -0.0281150	      0.0000000
     -0.5602046	     -0.0312287	      0.0000000
     -0.5331723	     -0.0342736	      0.0000000
     -0.5025270	     -0.0372006	      0.0000000
     -0.4684570	     -0.0399579	      0.0000000
     -0.4312074	     -0.0424912	      0.0000000
     -0.3910823	     -0.0447451	      0.0000000
     -0.3484458	     -0.0466639	      0.0000000
     -0.3037230	     -0.0481934	      0.0000000
     -0.2573976	     -0.0492830	      0.0000000
     -0.2100097	     -0.0498871	      0.0000000
     -0.1621495	     -0.0499680	      0.0000000
     -0.1144504	     -0.0494982	      0.0000000
     -0.0675777	     -0.0484638	      0.0000000
     -0.0222142	     -0.0468666	      0.0000000
      0.0209569	     -0.0447345	      0.0000000
      0.0612731	     -0.0421165	      0.0000000
      0.0981319	     -0.0390572	      0.0000000
      0.1309869	     -0.0356282	      0.0000000
      0.1593785	     -0.0319222	      0.0000000
      0.1829543	     -0.0280400	      0.0000000
      0.2014838	     -0.0240956	      0.0000000
      0.2148739	     -0.0202050	      0.0000000
      0.2231751	     -0.0164808	      0.0000000
      0.2265779	     -0.0130285	      0.0000000
      0.2254126	     -0.0099416	      0.0000000
      0.2201271	     -0.0072929	      0.0000000
      0.2112795	     -0.0051360	      0.0000000
      0.1994762	     -0.0034471	      0.0000000
      0.1853020	     -0.0021693	      0.0000000
      0.1693195	     -0.0012826	      0.0000000
      0.1520780	     -0.0007529	      0.0000000
      0.1340775	     -0.0005401	      0.0000000
      0.1157790	     -0.0006037	      0.0000000
      0.0975869	     -0.0009114	      0.0000000
      0.0798922	     -0.0014564	      0.0000000
      0.0630517	     -0.0022532	      0.0000000
      0.0474976	     -0.0033692	      0.0000000
      0.0336425	     -0.0048242	      0.0000000
      0.0220023	     -0.0066537	      0.0000000
      0.0129484	     -0.0081950	      0.0000000
      0.0059241	     -0.0083434	      0.0000000
      0.0000000	      0.0000000	      0.0000000
      0.0000000	      0.0000000	      0.0000000
     -0.0122947	     -0.0248457	      0.0000000
     -0.0092308	     -0.0394053	      0.0000000
      0.0047661	     -0.0481139	      0.0000000
      0.0216422	     -0.0523607	      0.0000000
      0.0415387	     -0.0531942	      0.0000000
      0.0606744	     -0.0514975	      0.0000000
      0.0781004	     -0.0479966	      0.0000000
      0.0922315	     -0.0434024	      0.0000000
      0.1025742	     -0.0383029	      0.0000000
      0.1087476	     -0.0331837	      0.0000000
      0.1108461	     -0.0283818	      0.0000000
      0.1091054	     -0.0240985	      0.0000000
      0.1039170	     -0.0204024	      0.0000000
      0.0956830	     -0.0172610	      0.0000000
      0.0847751	     -0.0145675	      0.0000000
      0.0714842	     -0.0121911	      0.0000000
      0.0560060	     -0.0099858	      0.0000000
      0.0384413	     -0.0078202	      0.0000000
      0.0188085	     -0.0055953	      0.0000000
     -0.0029320	     -0.0032442	      0.0000000
     -0.0268558	     -0.0007364	      0.0000000
     -0.0530508	      0.0019380	      0.0000000
     -0.0815756	      0.0047552	      0.0000000
     -0.1124743	      0.0076825	      0.0000000
     -0.1457605	      0.0106843	      0.0000000
     -0.1814150	      0.0137214	      0.0000000
     -0.2193822	      0.0167538	      0.0000000
     -0.2595702	      0.0197401	      0.0000000
     -0.3018503	      0.0226396	      0.0000000
     -0.3460567	      0.0254070	      0.0000000
     -0.3919904	      0.0279953	      0.0000000
     -0.4394224	      0.0303630	      0.0000000
     -0.4880926	      0.0324707	      0.0000000
     -0.5377131	      0.0342802	      0.0000000
     -0.5879713	      0.0357546	      0.0000000
     -0.6385326	      0.0368589	      0.0000000
     -0.6890438	      0.0375603	      0.0000000
     -0.7391368	      0.0378291	      0.0000000
     -0.7884317	      0.0376386	      0.0000000
     -0.8365405	      0.0369659	      0.0000000
     -0.8830706	      0.0357917	      0.0000000
     -0.9276279	      0.0341009	      0.0000000
     -0.9698201	      0.0318824	      0.0000000
     -1.0092602	      0.0291291	      0.0000000
     -1.0455684	      0.0258385	      0.0000000
     -1.0783761	      0.0220121	      0.0000000
     -1.1073265	      0.0176564	      0.0000000
     -1.1320802	      0.0127818	      0.0000000
     -1.1523062	      0.0074078	      0.0000000
     -1.1676979	      0.0015569	      0.0000000
     -1.1779232	     -0.0047847	      0.0000000
     -1.1827133	     -0.0116487	      0.0000000
     -1.1818337	     -0.0189938	      0.0000000
     -1.1750948	     -0.0267308	      0.0000000
     -1.1623631	     -0.0347801	      0.0000000
     -1.1435512	     -0.0430601	      0.0000000
     -1.1186240	     -0.0514874	      0.0000000
     -1.0875983	     -0.0599735	      0.0000000
     -1.0505468	     -0.0684232	      0.0000000
     -1.0076006	     -0.0767341	      0.0000000
     -0.9589525	     -0.0847963	      0.0000000
     -0.9048603	     -0.0924931	      0.0000000
     -0.8456504	     -0.0997015	      0.0000000
     -0.7817208	     -0.1062939	      0.0000000
     -0.7135430	     -0.1121398	      0.0000000
     -0.6416642	     -0.1171085	      0.0000000
     -0.5667075	     -0.1210721	      0.0000000
     -0.4893709	     -0.1239090	      0.0000000
     -0.4104250	     -0.1255086	      0.0000000
     -0.3307079	     -0.1257756	      0.0000000
     -0.2511178	     -0.1246362	      0.0000000
     -0.1726024	     -0.1220436	      0.0000000
     -0.0961485	     -0.1179859	      0.0000000
     -0.0227527	     -0.1124947	      0.0000000
      0.0465654	     -0.1056579	      0.0000000
      0.1108519	     -0.0976107	      0.0000000
      0.1692349	     -0.0885081	      0.0000000
      0.2209403	     -0.0785595	      0.0000000
      0.2653213	     -0.0680110	      0.0000000
      0.3018833	     -0.0571372	      0.0000000
      0.3303173	     -0.0462345	      0.0000000
      0.3505147	     -0.0356005	      0.0000000
      0.3625745	     -0.0255259	      0.0000000
      0.3668142	     -0.0162791	      0.0000000
      0.3637451	     -0.0080911	      0.0000000
      0.3540888	     -0.0011293	      0.0000000
      0.3386722	      0.0045825	      0.0000000
      0.3184562	      0.0090916	      0.0000000
      0.2943705	      0.0124292	      0.0000000
      0.2673544	      0.0146676	      0.0000000
      0.2382945	      0.0158999	      0.0000000
      0.2080339	      0.0162242	      0.0000000
      0.1773420	      0.0157244	      0.0000000
      0.1469642	      0.0144364	      0.0000000
      0.1175742	      0.0123527	      0.0000000
      0.0899277	      0.0093758	      0.0000000
      0.0646491	      0.0054931	      0.0000000
      0.0426176	      0.0006911	      0.0000000
      0.0241572	     -0.0039735	      0.0000000
      0.0101634	     -0.0070060	      0.0000000
      0.0000000	      0.0000000	      0.0000000
      0.0000000	      0.0000000	      0.0000000
     -0.0108720	     -0.0337150	      0.0000000
     -0.0058127	     -0.0580771	      0.0000000
      0.0107359	     -0.0736946	      0.0000000
      0.0305535	     -0.0817565	      0.0000000
      0.0534668	     -0.0835728	      0.0000000
      0.0753281	     -0.0805460	      0.0000000
      0.0948804	     -0.0740195	      0.0000000
      0.1102765	     -0.0652761	      0.0000000
      0.1208402	     -0.0554264	      0.0000000
      0.1260636	     -0.0453757	      0.0000000
      0.1259700	     -0.0357746	      0.0000000
      0.1207618	     -0.0270215	      0.0000000
      0.1108255	     -0.0192760	      0.0000000
      0.0965762	     -0.0125079	      0.0000000
      0.0783985	     -0.0065542	      0.0000000
      0.0566136	     -0.0011835	      0.0000000
      0.0314307	      0.0038531	      0.0000000
      0.0030033	      0.0087793	      0.0000000
     -0.0286272	      0.0137677	      0.0000000
     -0.0634472	      0.0189320	      0.0000000
     -0.1014867	      0.0243263	      0.0000000
     -0.1427720	      0.0299465	      0.0000000
     -0.1873111	      0.0357498	      0.0000000
     -0.2350817	      0.0416746	      0.0000000
     -0.2860177	      0.0476457	      0.0000000
     -0.3400051	      0.0535805	      0.0000000
     -0.3968799	      0.0593935	      0.0000000
     -0.4564288	      0.0649979	      0.0000000
     -0.5183901	      0.0703075	      0.0000000
     -0.5824570	      0.0752362	      0.0000000
     -0.6482833	      0.0796991	      0.0000000
     -0.7154866	      0.0836168	      0.0000000
     -0.7836511	      0.0869154	      0.0000000
     -0.8523332	      0.0895261	      0.0000000
     -0.9210661	      0.0913855	      0.0000000
     -0.9893659	      0.0924367	      0.0000000
     -1.0567366	      0.0926294	      0.0000000
     -1.1226756	      0.0919208	      0.0000000
     -1.1866786	      0.0902758	      0.0000000
     -1.2482448	      0.0876674	      0.0000000
     -1.3068809	      0.0840764	      0.0000000
     -1.3621054	      0.0794919	      0.0000000
     -1.4134525	      0.0739107	      0.0000000
     -1.4604748	      0.0673372	      0.0000000
     -1.5027463	      0.0597835	      0.0000000
     -1.5398647	      0.0512683	      0.0000000
     -1.5714526	      0.0418174	      0.0000000
     -1.5971602	      0.0314614	      0.0000000
     -1.6166583	      0.0202357	      0.0000000
     -1.6296540	      0.0081747	      0.0000000
     -1.6358585	     -0.0047169	      0.0000000
     -1.6350007	     -0.0184019	      0.0000000
     -1.6269987	     -0.0327567	      0.0000000
     -1.6117503	     -0.0476434	      0.0000000
     -1.5892210	     -0.0629276	      0.0000000
     -1.5594126	     -0.0784731	      0.0000000
     -1.5223768	     -0.0941381	      0.0000000
     -1.4782138	     -0.1097736	      0.0000000
     -1.4270761	     -0.1252208	      0.0000000
     -1.3691707	     -0.1403107	      0.0000000
     -1.3047622	     -0.1548637	      0.0000000
     -1.2341758	     -0.1686902	      0.0000000
     -1.1578008	     -0.1815913	      0.0000000
     -1.0760933	     -0.1933609	      0.0000000
     -0.9895795	     -0.2037883	      0.0000000
     -0.8988578	     -0.2126614	      0.0000000
     -0.8046009	     -0.2197712	      0.0000000
     -0.7075562	     -0.2249166	      0.0000000
     -0.6085452	     -0.2279110	      0.0000000
     -0.5084611	     -0.2285895	      0.0000000
     -0.4082642	     -0.2268164	      0.0000000
     -0.3089754	     -0.2224948	      0.0000000
     -0.2116657	     -0.2155772	      0.0000000
     -0.1174473	     -0.2060750	      0.0000000
     -0.0274426	     -0.1940847	      0.0000000
      0.0571843	     -0.1797880	      0.0000000
      0.1353580	     -0.1634644	      0.0000000
      0.2060901	     -0.1454395	      0.0000000
      0.2685057	     -0.1260936	      0.0000000
      0.3218681	     -0.1058909	      0.0000000
      0.3656186	     -0.0853369	      0.0000000
      0.3994075	     -0.0649573	      0.0000000
      0.4231071	     -0.0452848	      0.0000000
      0.4368378	     -0.0268315	      0.0000000
      0.4409618	     -0.0100604	      0.0000000
      0.4360879	      0.0046328	      0.0000000
      0.4230651	      0.0170427	      0.0000000
      0.4030208	      0.0271477	      0.0000000
      0.3770517	      0.0349658	      0.0000000
      0.3463274	      0.0405864	      0.0000000
      0.3119917	      0.0441467	      0.0000000
      0.2751688	      0.0458024	      0.0000000
      0.2369171	      0.0456971	      0.0000000
      0.1982762	      0.0439139	      0.0000000
      0.1601879	      0.0404722	      0.0000000
      0.1236930	      0.0352794	      0.0000000
      0.0896117	      0.0283283	      0.0000000
      0.0592328	      0.0196312	      0.0000000
      0.0330143	      0.0102544	      0.0000000
      0.0133393	      0.0016284	      0.0000000
      0.0000000	      0.0000000	      0.0000000
      0.0000000	      0.0000000	      0.0000000
     -0.0093099	     -0.0458363	      0.0000000
     -0.0026458	     -0.0798477	      0.0000000
      0.0152752	     -0.1020449	      0.0000000
      0.0359899	     -0.1135517	      0.0000000
      0.0592801	     -0.1159175	      0.0000000
      0.0809059	     -0.1110347	      0.0000000
      0.0995352	     -0.1008414	      0.0000000
      0.1132438	     -0.0872049	      0.0000000
      0.1212936	     -0.0717674	      0.0000000
      0.1231160	     -0.0558686	      0.0000000
      0.1186796	     -0.0404842	      0.0000000
      0.1081328	     -0.0262192	      0.0000000
      0.0918090	     -0.0133351	      0.0000000
      0.0700676	     -0.0018110	      0.0000000
      0.0432407	      0.0085724	      0.0000000
      0.0116856	      0.0181028	      0.0000000
     -0.0243630	      0.0271055	      0.0000000
     -0.0647244	      0.0358818	      0.0000000
     -0.1092934	      0.0446701	      0.0000000
     -0.1580054	      0.0536178	      0.0000000
     -0.2108087	      0.0627908	      0.0000000
     -0.2676371	      0.0721752	      0.0000000
     -0.3283950	      0.0816985	      0.0000000
     -0.3929411	      0.0912535	      0.0000000
     -0.4610798	      0.1007126	      0.0000000
     -0.5325583	      0.1099378	      0.0000000
     -0.6070660	      0.1187880	      0.0000000
     -0.6842381	      0.1271229	      0.0000000
     -0.7636587	      0.1348058	      0.0000000
     -0.8448668	      0.1417048	      0.0000000
     -0.9273634	      0.1476952	      0.0000000
     -1.0106180	      0.1526626	      0.0000000
     -1.0940747	      0.1565030	      0.0000000
     -1.1771593	      0.1591241	      0.0000000
     -1.2592868	      0.1604452	      0.0000000
     -1.3398684	      0.1603984	      0.0000000
     -1.4183187	      0.1589290	      0.0000000
     -1.4940616	      0.1559953	      0.0000000
     -1.5665362	      0.1515691	      0.0000000
     -1.6352017	      0.1456353	      0.0000000
     -1.6995422	      0.1381912	      0.0000000
     -1.7590696	      0.1292462	      0.0000000
     -1.8133270	      0.1188211	      0.0000000
     -1.8618908	      0.1069469	      0.0000000
     -1.9043717	      0.0936644	      0.0000000
     -1.9404165	      0.0790230	      0.0000000
     -1.9697071	      0.0630795	      0.0000000
     -1.9919625	      0.0458959	      0.0000000
     -2.0069305	      0.0275394	      0.0000000
     -2.0144194	      0.0080771	      0.0000000
     -2.0142079	     -0.0124539	      0.0000000
     -2.0062142	     -0.0339105	      0.0000000
     -1.9904535	     -0.0560821	      0.0000000
     -1.9669331	     -0.0788049	      0.0000000
     -1.9357044	     -0.1019031	      0.0000000
     -1.8968457	     -0.1251988	      0.0000000
     -1.8504715	     -0.1485043	      0.0000000
     -1.7967331	     -0.1716219	      0.0000000
     -1.7358220	     -0.1943416	      0.0000000
     -1.6679726	     -0.2164398	      0.0000000
     -1.5934660	     -0.2376797	      0.0000000
     -1.5126330	     -0.2578105	      0.0000000
     -1.4258585	     -0.2765694	      0.0000000
     -1.3335851	     -0.2936828	      0.0000000
     -1.2363174	     -0.3088699	      0.0000000
     -1.1346252	     -0.3218460	      0.0000000
     -1.0291472	     -0.3323278	      0.0000000
     -0.9205930	     -0.3400403	      0.0000000
     -0.8097449	     -0.3447233	      0.0000000
     -0.6974570	     -0.3461413	      0.0000000
     -0.5846539	     -0.3440932	      0.0000000
     -0.4723267	     -0.3384237	      0.0000000
     -0.3615265	     -0.3290362	      0.0000000
     -0.2533545	     -0.3159079	      0.0000000
     -0.1489548	     -0.2991029	      0.0000000
     -0.0494893	     -0.2788125	      0.0000000
      0.0438392	     -0.2553438	      0.0000000
      0.1298789	     -0.2291455	      0.0000000
      0.2075968	     -0.2007375	      0.0000000
      0.2760567	     -0.1707055	      0.0000000
      0.3344874	     -0.1397519	      0.0000000
      0.3822943	     -0.1086141	      0.0000000
      0.4190887	     -0.0780606	      0.0000000
      0.4447332	     -0.0488571	      0.0000000
      0.4593276	     -0.0217228	      0.0000000
      0.4632799	      0.0026699	      0.0000000
      0.4571848	      0.0237999	      0.0000000
      0.4421774	      0.0414751	      0.0000000
      0.4193683	      0.0556583	      0.0000000
      0.3900100	      0.0663965	      0.0000000
      0.3553783	      0.0738293	      0.0000000
      0.3167719	      0.0781400	      0.0000000
      0.2754511	      0.0795147	      0.0000000
      0.2326815	      0.0780814	      0.0000000
      0.1896243	      0.0738900	      0.0000000
      0.1475738	      0.0668594	      0.0000000
      0.1075504	      0.0569418	      0.0000000
      0.0712574	      0.0440761	      0.0000000
      0.0393943	      0.0290162	      0.0000000
      0.0155755	      0.0128105	      0.0000000
      0.0000000	      0.0000000	      0.0000000
      0.0000000	      0.0000000	      0.0000000
     -0.0083621	     -0.0586034	      0.0000000
     -0.0009218	     -0.1020735	      0.0000000
      0.0172113	     -0.1303510	      0.0000000
      0.0372399	     -0.1446242	      0.0000000
      0.0589394	     -0.1468023	      0.0000000
      0.0780867	     -0.1392911	      0.0000000
      0.0934066	     -0.1246387	      0.0000000
      0.1030230	     -0.1052990	      0.0000000
      0.1062336	     -0.0834411	      0.0000000
      0.1024781	     -0.0608306	      0.0000000
      0.0917091	     -0.0387550	      0.0000000
      0.0740264	     -0.0180207	      0.0000000
      0.0496896	      0.0010278	      0.0000000
      0.0189652	      0.0184108	      0.0000000
     -0.0177407	      0.0342928	      0.0000000
     -0.0601146	      0.0490142	      0.0000000
     -0.1078770	      0.0629887	      0.0000000
     -0.1608316	      0.0765822	      0.0000000
     -0.2188157	      0.0900779	      0.0000000
     -0.2816824	      0.1036426	      0.0000000
     -0.3492710	      0.1173297	      0.0000000
     -0.4213858	      0.1310931	      0.0000000
     -0.4977854	      0.1448152	      0.0000000
     -0.5781725	      0.1583337	      0.0000000
     -0.6621902	      0.1714608	      0.0000000
     -0.7494220	      0.1839987	      0.0000000
     -0.8393948	      0.1957481	      0.0000000
     -0.9315847	      0.2065154	      0.0000000
     -1.0254240	      0.2161165	      0.0000000
     -1.1203093	      0.2243799	      0.0000000
     -1.2156112	      0.2311489	      0.0000000
     -1.3106823	      0.2362844	      0.0000000
     -1.4048666	      0.2396660	      0.0000000
     -1.4975079	      0.2411927	      0.0000000
     -1.5879581	      0.2407835	      0.0000000
     -1.6755855	      0.2383774	      0.0000000
     -1.7597812	      0.2339334	      0.0000000
     -1.8399653	      0.2274301	      0.0000000
     -1.9155922	      0.2188644	      0.0000000
     -1.9861540	      0.2082510	      0.0000000
     -2.0511836	      0.1956207	      0.0000000
     -2.1102569	      0.1810190	      0.0000000
     -2.1629933	      0.1645047	      0.0000000
     -2.2090564	      0.1461483	      0.0000000
     -2.2481532	      0.1260302	      0.0000000
     -2.2800332	      0.1042396	      0.0000000
     -2.3044873	      0.0808725	      0.0000000
     -2.3213458	      0.0560293	      0.0000000
     -2.3304731	      0.0298171	      0.0000000
     -2.3318044	      0.0023309	      0.0000000
     -2.3251932	     -0.0263162	      0.0000000
     -2.3107776	     -0.0558807	      0.0000000
     -2.2885934	     -0.0861276	      0.0000000
     -2.2587217	     -0.1168703	      0.0000000
     -2.2212535	     -0.1479078	      0.0000000
     -2.1762998	     -0.1790328	      0.0000000
     -2.1239926	     -0.2100253	      0.0000000
     -2.0644886	     -0.2406518	      0.0000000
     -1.9979724	     -0.2706631	      0.0000000
     -1.9246601	     -0.2997928	      0.0000000
     -1.8448037	     -0.3277570	      0.0000000
     -1.7586957	     -0.3542538	      0.0000000
     -1.6666734	     -0.3789649	      0.0000000
     -1.5691247	     -0.4015567	      0.0000000
     -1.4664926	     -0.4216841	      0.0000000
     -1.3592803	     -0.4389947	      0.0000000
     -1.2480558	     -0.4531344	      0.0000000
     -1.1334555	     -0.4637549	      0.0000000
     -1.0161873	     -0.4705227	      0.0000000
     -0.8970322	     -0.4731291	      0.0000000
     -0.7768441	     -0.4713031	      0.0000000
     -0.6565479	     -0.4648240	      0.0000000
     -0.5371354	     -0.4535376	      0.0000000
     -0.4196583	     -0.4373720	      0.0000000
     -0.3052198	     -0.4163585	      0.0000000
     -0.1949625	     -0.3906479	      0.0000000
     -0.0900715	     -0.3605490	      0.0000000
      0.0082755	     -0.3265319	      0.0000000
      0.0988195	     -0.2891959	      0.0000000
      0.1805460	     -0.2493239	      0.0000000
      0.2524674	     -0.2077474	      0.0000000
      0.3137968	     -0.1653803	      0.0000000
      0.3639104	     -0.1232208	      0.0000000
      0.4024184	     -0.0822788	      0.0000000
      0.4291536	     -0.0435424	      0.0000000
      0.4442721	     -0.0079480	      0.0000000
      0.4480820	      0.0235978	      0.0000000
      0.4414652	      0.0505945	      0.0000000
      0.4254872	      0.0728933	      0.0000000
      0.4013514	      0.0904454	      0.0000000
      0.3703612	      0.1033419	      0.0000000
      0.3338876	      0.1117524	      0.0000000
      0.2933066	      0.1158728	      0.0000000
      0.2500384	      0.1158544	      0.0000000
      0.2054162	      0.1117596	      0.0000000
      0.1609536	      0.1035013	      0.0000000
      0.1178758	      0.0909379	      0.0000000
      0.0782591	      0.0738476	      0.0000000
      0.0430726	      0.0524547	      0.0000000
      0.0168105	      0.0271493	      0.0000000
      0.0000000	      0.0000000	      0.0000000
      0.0000000	      0.0000000	      0.0000000
     -0.0080030	     -0.0722192	      0.0000000
     -0.0006623	     -0.1246220	      0.0000000
      0.0164660	     -0.1580304	      0.0000000
      0.0343131	     -0.1739761	      0.0000000
      0.0526681	     -0.1749148	      0.0000000
      0.0674020	     -0.1638254	      0.0000000
      0.0773786	     -0.1438784	      0.0000000