# vtk DataFile Version 2.0
vw
ASCII
DATASET STRUCTURED_POINTS
DIMENSIONS  102  102    1
ORIGIN      0.0000000      0.0000000      0.0000000
SPACING      0.0100000      0.0100000      0.0100000
POINT_DATA  10404
VECTORS velocity float
      0.0000000	      0.0000000	      0.0000000
      0.0000000	      0.0000000	      0.0000000
      0.0000000	      0.0000000	      0.0000000
      0.0000000	      0.0000000	      0.0000000
      0.0000000	      0.0000000	      0.0000000
      0.0000000	      0.0000000	      0.0000000
      0.0000000	      0.0000000	      0.0000000
      0.0000000	      0.0000000	      0.0000000
      0.0000000	      0.0000000	      0.0000000
      0.0000000	      0.0000000	      0.0000000
      0.0000000	      0.0000000	      0.0000000
      0.0000000	      0.0000000	      0.0000000
      0.0000000	      0.0000000	      0.0000000
      0.0000000	      0.0000000	      0.0000000
      0.0000000	      0.0000000	      0.0000000
      0.0000000	      0.0000000	      0.0000000
      0.0000000	      0.0000000	      0.0000000
      0.0000000	      0.0000000	      0.0000000
      0.0000000	      0.0000000	      0.0000000
      0.0000000	      0.0000000	      0.0000000
      0.0000000	      0.0000000	      0.0000000
      0.0000000	      0.0000000	      0.0000000
      0.0000000	      0.0000000	      0.0000000
      0.0000000	      0.0000000	      0.0000000
      0.0000000	      0.0000000	      0.0000000
      0.0000000	      0.0000000	      0.0000000
      0.0000000	      0.0000000	      0.0000000
      0.0000000	      0.0000000	      0.0000000
      0.0000000	      0.0000000	      0.0000000
      0.0000000	      0.0000000	      0.0000000
      0.0000000	      0.0000000	      0.0000000
      0.0000000	      0.0000000	      0.0000000
      0.0000000	      0.0000000	      0.0000000
      0.0000000	      0.0000000	      0.0000000
      0.0000000	      0.0000000	      0.0000000
      0.0000000	      0.0000000	      0.0000000
      0.0000000	      0.0000000	      0.0000000
      0.0000000	      0.0000000	      0.0000000
      0.0000000	      0.0000000	      0.0000000
      0.0000000	      0.0000000	      0.0000000
      0.0000000	      0.0000000	      0.0000000
      0.0000000	      0.0000000	      0.0000000
      0.0000000	      0.0000000	      0.0000000
      0.0000000	      0.0000000	      0.0000000
      0.0000000	      0.0000000	      0.0000000
      0.0000000	      0.0000000	      0.0000000
      0.0000000	      0.0000000	      0.0000000
      0.0000000	      0.0000000	      0.0000000
      0.0000000	      0.0000000	      0.0000000
      0.0000000	      0.0000000	      0.0000000
      0.0000000	      0.0000000	      0.0000000
      0.0000000	      0.0000000	      0.0000000
      0.0000000	      0.0000000	      0.0000000
      0.0000000	      0.0000000	      0.0000000
      0.0000000	      0.0000000	      0.0000000
      0.0000000	      0.0000000	      0.0000000
      0.0000000	      0.0000000	      0.0000000
      0.0000000	      0.0000000	      0.0000000
      0.0000000	      0.0000000	      0.0000000
      0.0000000	      0.0000000	      0.0000000
      0.0000000	      0.0000000	      0.0000000
      0.0000000	      0.0000000	      0.0000000
      0.0000000	      0.0000000	      0.0000000
      0.0000000	      0.0000000	      0.0000000
      0.0000000	      0.0000000	      0.0000000
      0.0000000	      0.0000000	      0.0000000
      0.0000000	      0.0000000	      0.0000000
      0.0000000	      0.0000000	      0.0000000
      0.0000000	      0.0000000	      0.0000000
      0.0000000	      0.0000000	      0.0000000
      0.0000000	      0.0000000	      0.0000000
      0.0000000	      0.0000000	      0.0000000
      0.0000000	      0.0000000	      0.0000000
      0.0000000	      0.0000000	      0.0000000
      0.0000000	      0.0000000	      0.0000000
      0.0000000	      0.0000000	      0.0000000
      0.0000000	      0.0000000	      0.0000000
      0.0000000	      0.0000000	      0.0000000
      0.0000000	      0.0000000	      0.0000000
      0.0000000	      0.0000000	      0.0000000
      0.0000000	      0.0000000	      0.0000000
      0.0000000	      0.0000000	      0.0000000
      0.0000000	      0.0000000	      0.0000000
      0.0000000	      0.0000000	      0.0000000
      0.0000000	      0.0000000	      0.0000000
      0.0000000	      0.0000000	      0.0000000
      0.0000000	      0.0000000	      0.0000000
      0.0000000	      0.0000000	      0.0000000
      0.0000000	      0.0000000	      0.0000000
      0.0000000	      0.0000000	      0.0000000
      0.0000000	      0.0000000	      0.0000000
      0.0000000	      0.0000000	      0.0000000
      0.0000000	      0.0000000	      0.0000000
      0.0000000	      0.0000000	      0.0000000
      0.0000000	      0.0000000	      0.0000000
      0.0000000	      0.0000000	      0.0000000
      0.0000000	      0.0000000	      0.0000000
      0.0000000	      0.0000000	      0.0000000
      0.0000000	      0.0000000	      0.0000000
      0.0000000	      0.0000000	      0.0000000
      0.0000000	      0.0000000	      0.0000000
      0.0000000	      0.0000000	      0.0000000
      0.0000000	      0.0000000	      0.0000000
     -0.0117151	     -0.0154681	      0.0000000
     -0.0135804	     -0.0223787	      0.0000000
     -0.0045169	     -0.0259394	      0.0000000
      0.0048880	     -0.0274280	      0.0000000
      0.0161493	     -0.0275318	      0.0000000
      0.0266804	     -0.0267269	      0.0000000
      0.0360365	     -0.0253206	      0.0000000
      0.0434580	     -0.0235805	      0.0000000
      0.0487230	     -0.0217116	      0.0000000
      0.0517428	     -0.0198713	      0.0000000
      0.0526296	     -0.0181629	      0.0000000
      0.0515830	     -0.0166414	      0.0000000
      0.0488527	     -0.0153198	      0.0000000
      0.0446853	     -0.0141797	      0.0000000
      0.0392941	     -0.0131831	      0.0000000
      0.0328429	     -0.0122846	      0.0000000
      0.0254430	     -0.0114401	      0.0000000
      0.0171552	     -0.0106115	      0.0000000
      0.0079988	     -0.0097711	      0.0000000
     -0.0020313	     -0.0089024	      0.0000000
     -0.0129546	     -0.0080004	      0.0000000
     -0.0247925	     -0.0070659	      0.0000000
     -0.0375695	     -0.0061010	      0.0000000
     -0.0513008	     -0.0051114	      0.0000000
     -0.0659879	     -0.0041092	      0.0000000
     -0.0816189	     -0.0031057	      0.0000000
     -0.0981699	     -0.0021124	      0.0000000
     -0.1156025	     -0.0011404	      0.0000000
     -0.1338687	     -0.0002003	      0.0000000
     -0.1529031	      0.0006928	      0.0000000
     -0.1726274	      0.0015246	      0.0000000
     -0.1929542	      0.0022844	      0.0000000
     -0.2137852	      0.0029613	      0.0000000
     -0.2350134	      0.0035448	      0.0000000
     -0.2565229	      0.0040246	      0.0000000
     -0.2781896	      0.0043908	      0.0000000
     -0.2998828	      0.0046341	      0.0000000
     -0.3214649	      0.0047455	      0.0000000
     -0.3427934	      0.0047172	      0.0000000
     -0.3637209	      0.0045419	      0.0000000
     -0.3840963	      0.0042131	      0.0000000
     -0.4037656	      0.0037253	      0.0000000
     -0.4225727	      0.0030740	      0.0000000
     -0.4403600	      0.0022555	      0.0000000
     -0.4569694	      0.0012676	      0.0000000
     -0.4722448	      0.0001097	      0.0000000
     -0.4860287	     -0.0012134	      0.0000000
     -0.4981701	     -0.0026948	      0.0000000
     -0.5085315	     -0.0043350	      0.0000000
     -0.5169655	     -0.0061568	      0.0000000
     -0.5233015	     -0.0081790	      0.0000000
     -0.5273585	     -0.0103892	      0.0000000
     -0.5289810	     -0.0127664	      0.0000000
     -0.5280356	     -0.0152891	      0.0000000
     -0.5244097	     -0.0179352	      0.0000000
     -0.5180123	     -0.0206811	      0.0000000
     -0.5087739	     -0.0235015	      0.0000000
     -0.4966497	     -0.0263680	      0.0000000
     -0.4816213	     -0.0292494	      0.0000000
     -0.4636999	     -0.0321107	      0.0000000
     -0.4429296	     -0.0349142	      0.0000000
     -0.4193905	     -0.0376185	      0.0000000
     -0.3932015	     -0.0401801	      0.0000000
     -0.3645236	     -0.0425531	      0.0000000
     -0.3335616	     -0.0446902	      0.0000000
     -0.3005661	     -0.0465441	      0.0000000
     -0.2658339	     -0.0480682	      0.0000000
     -0.2297081	     -0.0492183	      0.0000000
     -0.1925757	     -0.0499544	      0.0000000
     -0.1548649	     -0.0502420	      0.0000000
     -0.1170396	     -0.0500546	      0.0000000
     -0.0795924	     -0.0493751	      0.0000000
     -0.0430357	     -0.0481991	      0.0000000
     -0.0078875	     -0.0465353	      0.0000000
      0.0253371	     -0.0444142	      0.0000000
      0.0561559	     -0.0418803	      0.0000000
      0.0841292	     -0.0389773	      0.0000000
      0.1088653	     -0.0357740	      0.0000000
      0.1300429	     -0.0323493	      0.0000000
      0.1474272	     -0.0287925	      0.0000000
      0.1608781	     -0.0251975	      0.0000000
      0.1703572	     -0.0216588	      0.0000000
      0.1759301	     -0.0182677	      0.0000000
      0.1777639	     -0.0151077	      0.0000000
      0.1761204	     -0.0122506	      0.0000000
      0.1713424	     -0.0097527	      0.0000000
      0.1638412	     -0.0076517	      0.0000000
      0.1540707	     -0.0059556	      0.0000000
      0.1424816	     -0.0046417	      0.0000000
      0.1294960	     -0.0036786	      0.0000000
      0.1155202	     -0.0030408	      0.0000000
      0.1009435	     -0.0027093	      0.0000000
      0.0861349	     -0.0026690	      0.0000000
      0.0714555	     -0.0029179	      0.0000000
      0.0572621	     -0.0034699	      0.0000000
      0.0439519	     -0.0043562	      0.0000000
      0.0319185	     -0.0055712	      0.0000000
      0.0215965	     -0.0070337	      0.0000000
      0.0132495	     -0.0081493	      0.0000000
      0.0062648	     -0.0078180	      0.0000000
      0.0000000	      0.0000000	      0.0000000
      0.0000000	      0.0000000	      0.0000000
     -0.0127307	     -0.0264962	      0.0000000
     -0.0134458	     -0.0409325	      0.0000000
     -0.0018055	     -0.0492344	      0.0000000
      0.0115127	     -0.0530317	      0.0000000
      0.0274528	     -0.0535354	      0.0000000
      0.0426189	     -0.0517013	      0.0000000
      0.0560561	     -0.0482764	      0.0000000
      0.0665636	     -0.0439188	      0.0000000
      0.0736606	     -0.0391574	      0.0000000
      0.0771100	     -0.0344012	      0.0000000
      0.0769800	     -0.0299267	      0.0000000
      0.0734952	     -0.0258889	      0.0000000
      0.0669753	     -0.0223365	      0.0000000
      0.0577577	     -0.0192369	      0.0000000
      0.0461499	     -0.0165067	      0.0000000
      0.0324013	     -0.0140440	      0.0000000
      0.0166935	     -0.0117450	      0.0000000
     -0.0008555	     -0.0095130	      0.0000000
     -0.0201861	     -0.0072810	      0.0000000
     -0.0412627	     -0.0050102	      0.0000000
     -0.0640787	     -0.0026818	      0.0000000
     -0.0886334	     -0.0002916	      0.0000000
     -0.1149293	      0.0021538	      0.0000000
     -0.1429320	      0.0046244	      0.0000000
     -0.1726003	      0.0070923	      0.0000000
     -0.2038676	      0.0095283	      0.0000000
     -0.2366465	      0.0119022	      0.0000000
     -0.2708263	      0.0141840	      0.0000000
     -0.3062738	      0.0163418	      0.0000000
     -0.3428351	      0.0183428	      0.0000000
     -0.3803390	      0.0201576	      0.0000000
     -0.4185965	      0.0217594	      0.0000000
     -0.4574029	      0.0231228	      0.0000000
     -0.4965396	      0.0242233	      0.0000000
     -0.5357763	      0.0250382	      0.0000000
     -0.5748730	      0.0255460	      0.0000000
     -0.6135815	      0.0257274	      0.0000000
     -0.6516477	      0.0255648	      0.0000000
     -0.6888135	      0.0250429	      0.0000000
     -0.7248178	      0.0241484	      0.0000000
     -0.7593990	      0.0228705	      0.0000000
     -0.7922958	      0.0212004	      0.0000000
     -0.8232491	      0.0191319	      0.0000000
     -0.8520033	      0.0166610	      0.0000000
     -0.8783073	      0.0137865	      0.0000000
     -0.9019163	      0.0105100	      0.0000000
     -0.9225915	      0.0068384	      0.0000000
     -0.9400977	      0.0027828	      0.0000000
     -0.9542067	     -0.0016492	      0.0000000
     -0.9646763	     -0.0064791	      0.0000000
     -0.9713170	     -0.0117404	      0.0000000
     -0.9739118	     -0.0174112	      0.0000000
     -0.9722867	     -0.0234362	      0.0000000
     -0.9663005	     -0.0297637	      0.0000000
     -0.9558424	     -0.0363405	      0.0000000
     -0.9408341	     -0.0431109	      0.0000000
     -0.9212308	     -0.0500150	      0.0000000
     -0.8970234	     -0.0569872	      0.0000000
     -0.8682416	     -0.0639553	      0.0000000
     -0.8349565	     -0.0708403	      0.0000000
     -0.7972844	     -0.0775565	      0.0000000
     -0.7553896	     -0.0840116	      0.0000000
     -0.7094882	     -0.0901078	      0.0000000
     -0.6598502	     -0.0957429	      0.0000000
     -0.6068028	     -0.1008117	      0.0000000
     -0.5507315	     -0.1052079	      0.0000000
     -0.4920817	     -0.1088270	      0.0000000
     -0.4313578	     -0.1115689	      0.0000000
     -0.3691223	     -0.1133412	      0.0000000
     -0.3059924	     -0.1140629	      0.0000000
     -0.2426350	     -0.1136685	      0.0000000
     -0.1797595	     -0.1121123	      0.0000000
     -0.1181082	     -0.1093736	      0.0000000
     -0.0584462	     -0.1054608	      0.0000000
     -0.0015332	     -0.1004208	      0.0000000
      0.0518468	     -0.0943418	      0.0000000
      0.1010102	     -0.0873449	      0.0000000
      0.1453126	     -0.0795606	      0.0000000
      0.1841991	     -0.0711708	      0.0000000
      0.2172200	     -0.0623784	      0.0000000
      0.2440520	     -0.0534022	      0.0000000
      0.2645109	     -0.0444695	      0.0000000
      0.2785645	     -0.0358057	      0.0000000
      0.2863359	     -0.0276240	      0.0000000
      0.2881022	     -0.0201157	      0.0000000
      0.2842821	     -0.0134398	      0.0000000
      0.2754258	     -0.0077174	      0.0000000
      0.2621852	     -0.0029916	      0.0000000
      0.2452561	      0.0007741	      0.0000000
      0.2253347	      0.0036215	      0.0000000
      0.2031460	      0.0055840	      0.0000000
      0.1793837	      0.0067065	      0.0000000
      0.1547212	      0.0070270	      0.0000000
      0.1298161	      0.0065591	      0.0000000
      0.1053038	      0.0052871	      0.0000000
      0.0818531	      0.0031610	      0.0000000
      0.0600621	      0.0001984	      0.0000000
      0.0406722	     -0.0034739	      0.0000000
      0.0239285	     -0.0069030	      0.0000000
      0.0107238	     -0.0086439	      0.0000000
      0.0000000	      0.0000000	      0.0000000
      0.0000000	      0.0000000	      0.0000000
     -0.0120276	     -0.0343995	      0.0000000
     -0.0115791	     -0.0577230	      0.0000000
      0.0013036	     -0.0722025	      0.0000000
      0.0161592	     -0.0792424	      0.0000000
      0.0336402	     -0.0804360	      0.0000000
      0.0500822	     -0.0772464	      0.0000000
      0.0642753	     -0.0710025	      0.0000000
      0.0748049	     -0.0628826	      0.0000000
      0.0810359	     -0.0538690	      0.0000000
      0.0826258	     -0.0447269	      0.0000000
      0.0795832	     -0.0359887	      0.0000000
      0.0721075	     -0.0279669	      0.0000000
      0.0605194	     -0.0207821	      0.0000000
      0.0451740	     -0.0144044	      0.0000000
      0.0264019	     -0.0087092	      0.0000000
      0.0044930	     -0.0035203	      0.0000000
     -0.0203415	      0.0013351	      0.0000000
     -0.0479257	      0.0060102	      0.0000000
     -0.0781239	      0.0106132	      0.0000000
     -0.1108522	      0.0152171	      0.0000000
     -0.1460447	      0.0198586	      0.0000000
     -0.1836396	      0.0245403	      0.0000000
     -0.2235617	      0.0292332	      0.0000000
     -0.2657161	      0.0338903	      0.0000000
     -0.3099848	      0.0384602	      0.0000000
     -0.3562196	      0.0428860	      0.0000000
     -0.4042437	      0.0471093	      0.0000000
     -0.4538513	      0.0510716	      0.0000000
     -0.5048100	      0.0547155	      0.0000000
     -0.5568646	      0.0579850	      0.0000000
     -0.6097395	      0.0608282	      0.0000000
     -0.6631408	      0.0631976	      0.0000000
     -0.7167591	      0.0650497	      0.0000000
     -0.7702731	      0.0663447	      0.0000000
     -0.8233526	      0.0670471	      0.0000000
     -0.8756615	      0.0671253	      0.0000000
     -0.9268607	      0.0665522	      0.0000000
     -0.9766110	      0.0653050	      0.0000000
     -1.0245752	      0.0633655	      0.0000000
     -1.0704209	      0.0607196	      0.0000000
     -1.1138218	      0.0573576	      0.0000000
     -1.1544600	      0.0532742	      0.0000000
     -1.1920276	      0.0484682	      0.0000000
     -1.2262274	      0.0429421	      0.0000000
     -1.2567747	      0.0367029	      0.0000000
     -1.2833980	      0.0297611	      0.0000000
     -1.3058381	      0.0221305	      0.0000000
     -1.3238451	      0.0138263	      0.0000000
     -1.3371937	      0.0048626	      0.0000000
     -1.3456382	     -0.0047694	      0.0000000
     -1.3489595	     -0.0150733	      0.0000000
     -1.3470440	     -0.0259867	      0.0000000
     -1.3397652	     -0.0374182	      0.0000000
     -1.3270428	     -0.0492793	      0.0000000
     -1.3088222	     -0.0614791	      0.0000000
     -1.2850818	     -0.0739220	      0.0000000
     -1.2558332	     -0.0865058	      0.0000000
     -1.2211241	     -0.0991197	      0.0000000
     -1.1810404	     -0.1116431	      0.0000000
     -1.1357089	     -0.1239456	      0.0000000
     -1.0853002	     -0.1358867	      0.0000000
     -1.0300316	     -0.1473161	      0.0000000
     -0.9701704	     -0.1580750	      0.0000000
     -0.9060364	     -0.1679976	      0.0000000
     -0.8380048	     -0.1769134	      0.0000000
     -0.7665084	     -0.1846498	      0.0000000
     -0.6920391	     -0.1910357	      0.0000000
     -0.6151489	     -0.1959055	      0.0000000
     -0.5364496	     -0.1991044	      0.0000000
     -0.4566110	     -0.2004933	      0.0000000
     -0.3763582	     -0.1999552	      0.0000000
     -0.2964660	     -0.1974017	      0.0000000
     -0.2177523	     -0.1927802	      0.0000000
     -0.1410682	     -0.1860821	      0.0000000
     -0.0672888	     -0.1773490	      0.0000000
      0.0027194	     -0.1666961	      0.0000000
      0.0680398	     -0.1542985	      0.0000000
      0.1279084	     -0.1404020	      0.0000000
      0.1815834	     -0.1252720	      0.0000000
      0.2284394	     -0.1092433	      0.0000000
      0.2679682	     -0.0926837	      0.0000000
      0.2998038	     -0.0759861	      0.0000000
      0.3237445	     -0.0595546	      0.0000000
      0.3397643	     -0.0437843	      0.0000000
      0.3480213	     -0.0290453	      0.0000000
      0.3488500	     -0.0156635	      0.0000000
      0.3427751	     -0.0039085	      0.0000000
      0.3304404	      0.0060610	      0.0000000
      0.3126822	      0.0142245	      0.0000000
      0.2903825	      0.0205985	      0.0000000
      0.2644346	      0.0252176	      0.0000000
      0.2357460	      0.0281474	      0.0000000
      0.2052112	      0.0294490	      0.0000000
      0.1737177	      0.0291568	      0.0000000
      0.1421224	      0.0272683	      0.0000000
      0.1113234	      0.0237427	      0.0000000
      0.0821015	      0.0186174	      0.0000000
      0.0555520	      0.0120559	      0.0000000
      0.0320080	      0.0050603	      0.0000000
      0.0139408	     -0.0010260	      0.0000000
      0.0000000	      0.0000000	      0.0000000
      0.0000000	      0.0000000	      0.0000000
     -0.0111097	     -0.0452868	      0.0000000
     -0.0098300	     -0.0770512	      0.0000000
      0.0032900	     -0.0971529	      0.0000000
      0.0178692	     -0.1069838	      0.0000000
      0.0345433	     -0.1084257	      0.0000000
      0.0496410	     -0.1034126	      0.0000000
      0.0619122	     -0.0938161	      0.0000000
      0.0698947	     -0.0813298	      0.0000000
      0.0729047	     -0.0673899	      0.0000000
      0.0705523	     -0.0531261	      0.0000000
      0.0628020	     -0.0393365	      0.0000000
      0.0498117	     -0.0265026	      0.0000000
      0.0318647	     -0.0148257	      0.0000000
      0.0092888	     -0.0042822	      0.0000000
     -0.0176182	      0.0052847	      0.0000000
     -0.0485212	      0.0140788	      0.0000000
     -0.0831300	      0.0223181	      0.0000000
     -0.1212217	      0.0301985	      0.0000000
     -0.1626155	      0.0378765	      0.0000000
     -0.2071624	      0.0454551	      0.0000000
     -0.2547209	      0.0529785	      0.0000000
     -0.3051427	      0.0604409	      0.0000000
     -0.3582606	      0.0677968	      0.0000000
     -0.4138832	      0.0749742	      0.0000000
     -0.4717902	      0.0818896	      0.0000000
     -0.5317286	      0.0884534	      0.0000000
     -0.5934153	      0.0945752	      0.0000000
     -0.6565380	      0.1001667	      0.0000000
     -0.7207594	      0.1051431	      0.0000000
     -0.7857215	      0.1094252	      0.0000000
     -0.8510492	      0.1129407	      0.0000000
     -0.9163546	      0.1156250	      0.0000000
     -0.9812405	      0.1174208	      0.0000000
     -1.0453053	      0.1182787	      0.0000000
     -1.1081466	      0.1181566	      0.0000000
     -1.1693651	      0.1170202	      0.0000000
     -1.2285679	      0.1148427	      0.0000000
     -1.2853718	      0.1116045	      0.0000000
     -1.3394060	      0.1072932	      0.0000000
     -1.3903137	      0.1019034	      0.0000000
     -1.4377546	      0.0954357	      0.0000000
     -1.4814062	      0.0878971	      0.0000000
     -1.5209645	      0.0793000	      0.0000000
     -1.5561450	      0.0696621	      0.0000000
     -1.5866834	      0.0590061	      0.0000000
     -1.6123350	      0.0473584	      0.0000000
     -1.6328747	      0.0347488	      0.0000000
     -1.6480941	      0.0212087	      0.0000000
     -1.6578240	      0.0067672	      0.0000000
     -1.6618634	     -0.0085703	      0.0000000
     -1.6600803	     -0.0247425	      0.0000000
     -1.6524547	     -0.0416257	      0.0000000
     -1.6389379	     -0.0591067	      0.0000000
     -1.6195209	     -0.0770677	      0.0000000
     -1.5942124	     -0.0953869	      0.0000000
     -1.5630464	     -0.1139350	      0.0000000
     -1.5260830	     -0.1325733	      0.0000000
     -1.4834108	     -0.1511521	      0.0000000
     -1.4351496	     -0.1695094	      0.0000000
     -1.3814524	     -0.1874704	      0.0000000
     -1.3225088	     -0.2048469	      0.0000000
     -1.2585479	     -0.2214384	      0.0000000
     -1.1898414	     -0.2370328	      0.0000000
     -1.1167075	     -0.2514082	      0.0000000
     -1.0395134	     -0.2643355	      0.0000000
     -0.9586791	     -0.2755818	      0.0000000
     -0.8746795	     -0.2849144	      0.0000000
     -0.7880468	     -0.2921064	      0.0000000
     -0.6993715	     -0.2969420	      0.0000000
     -0.6093026	     -0.2992243	      0.0000000
     -0.5185464	     -0.2987819	      0.0000000
     -0.4278637	     -0.2954784	      0.0000000
     -0.3380647	     -0.2892212	      0.0000000
     -0.2500032	     -0.2799712	      0.0000000
     -0.1645658	     -0.2677541	      0.0000000
     -0.0826660	     -0.2526702	      0.0000000
     -0.0052091	     -0.2349292	      0.0000000
      0.0668316	     -0.2148152	      0.0000000
      0.1326462	     -0.1927253	      0.0000000
      0.1914525	     -0.1690888	      0.0000000
      0.2425890	     -0.1443993	      0.0000000
      0.2855158	     -0.1192066	      0.0000000
      0.3198464	     -0.0940897	      0.0000000
      0.3453679	     -0.0696307	      0.0000000
      0.3620568	     -0.0463931	      0.0000000
      0.3700791	     -0.0248971	      0.0000000
      0.3698254	     -0.0055933	      0.0000000
      0.3618211	      0.0111620	      0.0000000
      0.3469070	      0.0252030	      0.0000000
      0.3260108	      0.0364951	      0.0000000
      0.3001042	      0.0450443	      0.0000000
      0.2702142	      0.0509050	      0.0000000
      0.2373794	      0.0541436	      0.0000000
      0.2026519	      0.0548061	      0.0000000
      0.1670600	      0.0528991	      0.0000000
      0.1316974	      0.0483821	      0.0000000
      0.0975258	      0.0412647	      0.0000000
      0.0659908	      0.0316513	      0.0000000
      0.0376168	      0.0203026	      0.0000000
      0.0161274	      0.0082512	      0.0000000
      0.0000000	      0.0000000	      0.0000000
      0.0000000	      0.0000000	      0.0000000
     -0.0106501	     -0.0562370	      0.0000000
     -0.0092733	     -0.0958920	      0.0000000
      0.0030524	     -0.1209449	      0.0000000
      0.0159383	     -0.1328661	      0.0000000
      0.0300553	     -0.1338803	      0.0000000
      0.0418357	     -0.1263906	      0.0000000
      0.0501136	     -0.1127989	      0.0000000
      0.0534927	     -0.0953012	      0.0000000
      0.0513283	     -0.0757770	      0.0000000
      0.0432420	     -0.0557116	      0.0000000
      0.0291830	     -0.0361557	      0.0000000
      0.0092831	     -0.0177478	      0.0000000
     -0.0162299	     -0.0007757	      0.0000000
     -0.0470912	      0.0147688	      0.0000000
     -0.0828882	      0.0289890	      0.0000000
     -0.1232878	      0.0421098	      0.0000000
     -0.1679836	      0.0544051	      0.0000000
     -0.2167143	      0.0661252	      0.0000000
     -0.2692430	      0.0774570	      0.0000000
     -0.3253428	      0.0885130	      0.0000000
     -0.3847794	      0.0993318	      0.0000000
     -0.4473005	      0.1098893	      0.0000000
     -0.5126287	      0.1201144	      0.0000000
     -0.5804584	      0.1299059	      0.0000000
     -0.6504540	      0.1391479	      0.0000000
     -0.7222500	      0.1477188	      0.0000000
     -0.7954541	      0.1554981	      0.0000000
     -0.8696507	      0.1623707	      0.0000000
     -0.9444058	      0.1682295	      0.0000000
     -1.0192728	      0.1729776	      0.0000000
     -1.0937972	      0.1765293	      0.0000000
     -1.1675218	      0.1788112	      0.0000000
     -1.2399915	      0.1797619	      0.0000000
     -1.3107584	      0.1793319	      0.0000000
     -1.3793858	      0.1774837	      0.0000000
     -1.4454523	      0.1741911	      0.0000000
     -1.5085548	      0.1694389	      0.0000000
     -1.5683118	      0.1632220	      0.0000000
     -1.6243648	      0.1555448	      0.0000000
     -1.6763804	      0.1464208	      0.0000000
     -1.7240509	      0.1358709	      0.0000000
     -1.7670952	      0.1239238	      0.0000000
     -1.8052584	      0.1106139	      0.0000000
     -1.8383122	      0.0959818	      0.0000000
     -1.8660537	      0.0800724	      0.0000000
     -1.8883055	      0.0629345	      0.0000000
     -1.9049130	      0.0446200	      0.0000000
     -1.9157446	      0.0251829	      0.0000000
     -1.9207181	      0.0046740	      0.0000000
     -1.9196824	     -0.0168695	      0.0000000
     -1.9126667	     -0.0393144	      0.0000000
     -1.8996917	     -0.0624940	      0.0000000
     -1.8807776	     -0.0862819	      0.0000000
     -1.8559634	     -0.1105413	      0.0000000
     -1.8252987	     -0.1351287	      0.0000000
     -1.7888478	     -0.1598906	      0.0000000
     -1.7466916	     -0.1846610	      0.0000000
     -1.6989300	     -0.2092606	      0.0000000
     -1.6456848	     -0.2334944	      0.0000000
     -1.5871024	     -0.2571518	      0.0000000
     -1.5233573	     -0.2800054	      0.0000000
     -1.4546560	     -0.3018118	      0.0000000
     -1.3812402	     -0.3223126	      0.0000000
     -1.3033916	     -0.3412358	      0.0000000
     -1.2214359	     -0.3582992	      0.0000000
     -1.1357463	     -0.3732135	      0.0000000
     -1.0467480	     -0.3856878	      0.0000000
     -0.9549208	     -0.3954348	      0.0000000
     -0.8608018	     -0.4021784	      0.0000000
     -0.7649870	     -0.4056617	      0.0000000
     -0.6681318	     -0.4056559	      0.0000000
     -0.5709494	     -0.4019712	      0.0000000
     -0.4742079	     -0.3944671	      0.0000000
     -0.3787261	     -0.3830651	      0.0000000
     -0.2853658	     -0.3677608	      0.0000000
     -0.1950228	     -0.3486387	      0.0000000
     -0.1086210	     -0.3258828	      0.0000000
     -0.0270859	     -0.2998171	      0.0000000
      0.0486049	     -0.2708635	      0.0000000
      0.1175787	     -0.2395800	      0.0000000
      0.1790475	     -0.2065818	      0.0000000
      0.2323224	     -0.1725374	      0.0000000
      0.2768526	     -0.1381938	      0.0000000
      0.3122449	     -0.1043140	      0.0000000
      0.3382837	     -0.0716568	      0.0000000
      0.3549454	     -0.0409500	      0.0000000
      0.3624349	     -0.0128492	      0.0000000
      0.3611250	      0.0120404	      0.0000000
      0.3516946	      0.0333339	      0.0000000
      0.3350576	      0.0508966	      0.0000000
      0.3121736	      0.0646643	      0.0000000
      0.2841101	      0.0746463	      0.0000000
      0.2519780	      0.0808865	      0.0000000
      0.2169341	      0.0834210	      0.0000000
      0.1801333	      0.0822463	      0.0000000
      0.1428325	      0.0772977	      0.0000000
      0.1061656	      0.0685061	      0.0000000
      0.0718874	      0.0558275	      0.0000000
      0.0407308	      0.0395984	      0.0000000
      0.0173035	      0.0203069	      0.0000000
      0.0000000	      0.0000000	      0.0000000
      0.0000000	      0.0000000	      0.0000000
     -0.0107564	     -0.0674906	      0.0000000
     -0.0100609	     -0.1142241	      0.0000000
      0.0004006	     -0.1431819	      0.0000000
      0.0102886	     -0.1561373	      0.0000000
      0.0203408	     -0.1557887	      0.0000000
      0.0271594	     -0.1450313	      0.0000000
      0.0297405	     -0.1267869	      0.0000000