# vtk DataFile Version 2.0
vw
ASCII
DATASET STRUCTURED_POINTS
DIMENSIONS  102  102    1
ORIGIN      0.0000000      0.0000000      0.0000000
SPACING      0.0100000      0.0100000      0.0100000
POINT_DATA  10404
VECTORS velocity float
      0.0000000	      0.0000000	      0.0000000
      0.0000000	      0.0000000	      0.0000000
      0.0000000	      0.0000000	      0.0000000
      0.0000000	      0.0000000	      0.0000000
      0.0000000	      0.0000000	      0.0000000
      0.0000000	      0.0000000	      0.0000000
      0.0000000	      0.0000000	      0.0000000
      0.0000000	      0.0000000	      0.0000000
      0.0000000	      0.0000000	      0.0000000
      0.0000000	      0.0000000	      0.0000000
      0.0000000	      0.0000000	      0.0000000
      0.0000000	      0.0000000	      0.0000000
      0.0000000	      0.0000000	      0.0000000
      0.0000000	      0.0000000	      0.0000000
      0.0000000	      0.0000000	      0.0000000
      0.0000000	      0.0000000	      0.0000000
      0.0000000	      0.0000000	      0.0000000
      0.0000000	      0.0000000	      0.0000000
      0.0000000	      0.0000000	      0.0000000
      0.0000000	      0.0000000	      0.0000000
      0.0000000	      0.0000000	      0.0000000
      0.0000000	      0.0000000	      0.0000000
      0.0000000	      0.0000000	      0.0000000
      0.0000000	      0.0000000	      0.0000000
      0.0000000	      0.0000000	      0.0000000
      0.0000000	      0.0000000	      0.0000000
      0.0000000	      0.0000000	      0.0000000
      0.0000000	      0.0000000	      0.0000000
      0.0000000	      0.0000000	      0.0000000
      0.0000000	      0.0000000	      0.0000000
      0.0000000	      0.0000000	      0.0000000
      0.0000000	      0.0000000	      0.0000000
      0.0000000	      0.0000000	      0.0000000
      0.0000000	      0.0000000	      0.0000000
      0.0000000	      0.0000000	      0.0000000
      0.0000000	      0.0000000	      0.0000000
      0.0000000	      0.0000000	      0.0000000
      0.0000000	      0.0000000	      0.0000000
      0.0000000	      0.0000000	      0.0000000
      0.0000000	      0.0000000	      0.0000000
      0.0000000	      0.0000000	      0.0000000
      0.0000000	      0.0000000	      0.0000000
      0.0000000	      0.0000000	      0.0000000
      0.0000000	      0.0000000	      0.0000000
      0.0000000	      0.0000000	      0.0000000
      0.0000000	      0.0000000	      0.0000000
      0.0000000	      0.0000000	      0.0000000
      0.0000000	      0.0000000	      0.0000000
      0.0000000	      0.0000000	      0.0000000
      0.0000000	      0.0000000	      0.0000000
      0.0000000	      0.0000000	      0.0000000
      0.0000000	      0.0000000	      0.0000000
      0.0000000	      0.0000000	      0.0000000
      0.0000000	      0.0000000	      0.0000000
      0.0000000	      0.0000000	      0.0000000
      0.0000000	      0.0000000	      0.0000000
      0.0000000	      0.0000000	      0.0000000
      0.0000000	      0.0000000	      0.0000000
      0.0000000	      0.0000000	      0.0000000
      0.0000000	      0.0000000	      0.0000000
      0.0000000	      0.0000000	      0.0000000
      0.0000000	      0.0000000	      0.0000000
      0.0000000	      0.0000000	      0.0000000
      0.0000000	      0.0000000	      0.0000000
      0.0000000	      0.0000000	      0.0000000
      0.0000000	      0.0000000	      0.0000000
      0.0000000	      0.0000000	      0.0000000
      0.0000000	      0.0000000	      0.0000000
      0.0000000	      0.0000000	      0.0000000
      0.0000000	      0.0000000	      0.0000000
      0.0000000	      0.0000000	      0.0000000
      0.0000000	      0.0000000	      0.0000000
      0.0000000	      0.0000000	      0.0000000
      0.0000000	      0.0000000	      0.0000000
      0.0000000	      0.0000000	      0.0000000
      0.0000000	      0.0000000	      0.0000000
      0.0000000	      0.0000000	      0.0000000
      0.0000000	      0.0000000	      0.0000000
      0.0000000	      0.0000000	      0.0000000
      0.0000000	      0.0000000	      0.0000000
      0.0000000	      0.0000000	      0.0000000
      0.0000000	      0.0000000	      0.0000000
      0.0000000	      0.0000000	      0.0000000
      0.0000000	      0.0000000	      0.0000000
      0.0000000	      0.0000000	      0.0000000
      0.0000000	      0.0000000	      0.0000000
      0.0000000	      0.0000000	      0.0000000
      0.0000000	      0.0000000	      0.0000000
      0.0000000	      0.0000000	      0.0000000
      0.0000000	      0.0000000	      0.0000000
      0.0000000	      0.0000000	      0.0000000
      0.0000000	      0.0000000	      0.0000000
      0.0000000	      0.0000000	      0.0000000
      0.0000000	      0.0000000	      0.0000000
      0.0000000	      0.0000000	      0.0000000
      0.0000000	      0.0000000	      0.0000000
      0.0000000	      0.0000000	      0.0000000
      0.0000000	      0.0000000	      0.0000000
      0.0000000	      0.0000000	      0.0000000
      0.0000000	      0.0000000	      0.0000000
      0.0000000	      0.0000000	      0.0000000
      0.0000000	      0.0000000	      0.0000000
      0.0000000	      0.0000000	      0.0000000
     -0.0120140	     -0.0144880	      0.0000000
     -0.0117743	     -0.0201475	      0.0000000
     -0.0034851	     -0.0229513	      0.0000000
      0.0056666	     -0.0240945	      0.0000000
      0.0167345	     -0.0242168	      0.0000000
      0.0272422	     -0.0236697	      0.0000000
      0.0369945	     -0.0226465	      0.0000000
      0.0450900	     -0.0213478	      0.0000000
      0.0513626	     -0.0199168	      0.0000000
      0.0555978	     -0.0184828	      0.0000000
      0.0578630	     -0.0171320	      0.0000000
      0.0582683	     -0.0159199	      0.0000000
      0.0570162	     -0.0148671	      0.0000000
      0.0543104	     -0.0139682	      0.0000000
      0.0503490	     -0.0131992	      0.0000000
      0.0452879	     -0.0125236	      0.0000000
      0.0392389	     -0.0119015	      0.0000000
      0.0322661	     -0.0112956	      0.0000000
      0.0243876	     -0.0106774	      0.0000000
      0.0155864	     -0.0100278	      0.0000000
      0.0058239	     -0.0093336	      0.0000000
     -0.0049480	     -0.0085912	      0.0000000
     -0.0167836	     -0.0078007	      0.0000000
     -0.0297313	     -0.0069621	      0.0000000
     -0.0438278	     -0.0060843	      0.0000000
     -0.0590956	     -0.0051770	      0.0000000
     -0.0755421	     -0.0042509	      0.0000000
     -0.0931585	     -0.0033169	      0.0000000
     -0.1119187	     -0.0023861	      0.0000000
     -0.1317802	     -0.0014703	      0.0000000
     -0.1526808	     -0.0005802	      0.0000000
     -0.1745454	      0.0002717	      0.0000000
     -0.1972723	      0.0010661	      0.0000000
     -0.2207476	      0.0017901	      0.0000000
     -0.2448392	      0.0024308	      0.0000000
     -0.2694006	      0.0029757	      0.0000000
     -0.2942709	      0.0034121	      0.0000000
     -0.3192756	      0.0037275	      0.0000000
     -0.3442285	      0.0039101	      0.0000000
     -0.3689327	      0.0039487	      0.0000000
     -0.3931822	      0.0038330	      0.0000000
     -0.4167636	      0.0035540	      0.0000000
     -0.4394581	      0.0031037	      0.0000000
     -0.4610429	      0.0024754	      0.0000000
     -0.4812938	      0.0016642	      0.0000000
     -0.4999860	      0.0006671	      0.0000000
     -0.5168996	     -0.0005153	      0.0000000
     -0.5318150	     -0.0018729	      0.0000000
     -0.5445298	     -0.0033984	      0.0000000
     -0.5548482	     -0.0050923	      0.0000000
     -0.5625717	     -0.0069889	      0.0000000
     -0.5674772	     -0.0091002	      0.0000000
     -0.5693593	     -0.0113968	      0.0000000
     -0.5680532	     -0.0138517	      0.0000000
     -0.5634242	     -0.0164359	      0.0000000
     -0.5553736	     -0.0191203	      0.0000000
     -0.5438361	     -0.0218742	      0.0000000
     -0.5287839	     -0.0246640	      0.0000000
     -0.5102280	     -0.0274534	      0.0000000
     -0.4882214	     -0.0302026	      0.0000000
     -0.4628623	     -0.0328691	      0.0000000
     -0.4342967	     -0.0354075	      0.0000000
     -0.4027211	     -0.0377705	      0.0000000
     -0.3683841	     -0.0399093	      0.0000000
     -0.3315881	     -0.0417750	      0.0000000
     -0.2926893	     -0.0433193	      0.0000000
     -0.2520969	     -0.0444965	      0.0000000
     -0.2102708	     -0.0452649	      0.0000000
     -0.1677169	     -0.0455887	      0.0000000
     -0.1249820	     -0.0454400	      0.0000000
     -0.0826439	     -0.0448013	      0.0000000
     -0.0413028	     -0.0436686	      0.0000000
     -0.0015611	     -0.0420510	      0.0000000
      0.0359794	     -0.0399875	      0.0000000
      0.0707651	     -0.0375223	      0.0000000
      0.1022886	     -0.0346954	      0.0000000
      0.1301052	     -0.0315835	      0.0000000
      0.1538510	     -0.0282661	      0.0000000
      0.1732665	     -0.0248377	      0.0000000
      0.1882025	     -0.0213944	      0.0000000
      0.1986281	     -0.0180329	      0.0000000
      0.2046350	     -0.0148461	      0.0000000
      0.2064323	     -0.0119174	      0.0000000
      0.2043400	     -0.0093188	      0.0000000
      0.1987719	     -0.0071038	      0.0000000
      0.1902216	     -0.0053055	      0.0000000
      0.1792105	     -0.0039005	      0.0000000
      0.1662352	     -0.0028423	      0.0000000
      0.1517719	     -0.0021091	      0.0000000
      0.1362800	     -0.0016721	      0.0000000
      0.1201771	     -0.0014980	      0.0000000
      0.1038484	     -0.0015560	      0.0000000
      0.0876351	     -0.0018231	      0.0000000
      0.0718725	     -0.0022995	      0.0000000
      0.0568737	     -0.0030027	      0.0000000
      0.0430195	     -0.0039949	      0.0000000
      0.0306799	     -0.0052880	      0.0000000
      0.0202899	     -0.0069001	      0.0000000
      0.0121727	     -0.0081947	      0.0000000
      0.0056968	     -0.0081151	      0.0000000
      0.0000000	      0.0000000	      0.0000000
      0.0000000	      0.0000000	      0.0000000
     -0.0125876	     -0.0230922	      0.0000000
     -0.0112094	     -0.0359117	      0.0000000
     -0.0001323	     -0.0434361	      0.0000000
      0.0133389	     -0.0471044	      0.0000000
      0.0296314	     -0.0479780	      0.0000000
      0.0454596	     -0.0468141	      0.0000000
      0.0601393	     -0.0441875	      0.0000000
      0.0722990	     -0.0406385	      0.0000000
      0.0815113	     -0.0366036	      0.0000000
      0.0873785	     -0.0324501	      0.0000000
      0.0898996	     -0.0284410	      0.0000000
      0.0891766	     -0.0247475	      0.0000000
      0.0854564	     -0.0214482	      0.0000000
      0.0790091	     -0.0185474	      0.0000000
      0.0701089	     -0.0159939	      0.0000000
      0.0589821	     -0.0137012	      0.0000000
      0.0457977	     -0.0115776	      0.0000000
      0.0306567	     -0.0095286	      0.0000000
      0.0136013	     -0.0074700	      0.0000000
     -0.0053722	     -0.0053450	      0.0000000
     -0.0263026	     -0.0031215	      0.0000000
     -0.0492343	     -0.0007851	      0.0000000
     -0.0742298	      0.0016663	      0.0000000
     -0.1013198	      0.0042127	      0.0000000
     -0.1305213	      0.0068272	      0.0000000
     -0.1618246	      0.0094798	      0.0000000
     -0.1951923	      0.0121373	      0.0000000
     -0.2305557	      0.0147646	      0.0000000
     -0.2678144	      0.0173253	      0.0000000
     -0.3068359	      0.0197817	      0.0000000
     -0.3474559	      0.0220963	      0.0000000
     -0.3894779	      0.0242280	      0.0000000
     -0.4326774	      0.0261353	      0.0000000
     -0.4768042	      0.0277820	      0.0000000
     -0.5215817	      0.0291328	      0.0000000
     -0.5667109	      0.0301541	      0.0000000
     -0.6118728	      0.0308140	      0.0000000
     -0.6567318	      0.0310829	      0.0000000
     -0.7009386	      0.0309342	      0.0000000
     -0.7441336	      0.0303442	      0.0000000
     -0.7859505	      0.0292928	      0.0000000
     -0.8260193	      0.0277639	      0.0000000
     -0.8639699	      0.0257453	      0.0000000
     -0.8994351	      0.0232289	      0.0000000
     -0.9320545	      0.0202113	      0.0000000
     -0.9614765	      0.0166943	      0.0000000
     -0.9873623	      0.0126849	      0.0000000
     -1.0093858	      0.0082002	      0.0000000
     -1.0272297	      0.0032575	      0.0000000
     -1.0405973	     -0.0021278	      0.0000000
     -1.0491925	     -0.0079852	      0.0000000
     -1.0527747	     -0.0143198	      0.0000000
     -1.0511144	     -0.0210647	      0.0000000
     -1.0440478	     -0.0281465	      0.0000000
     -1.0314523	     -0.0354900	      0.0000000
     -1.0132577	     -0.0430184	      0.0000000
     -0.9894428	     -0.0506515	      0.0000000
     -0.9600395	     -0.0583035	      0.0000000
     -0.9251342	     -0.0658828	      0.0000000
     -0.8848711	     -0.0732914	      0.0000000
     -0.8394540	     -0.0804253	      0.0000000
     -0.7891500	     -0.0871755	      0.0000000
     -0.7342908	     -0.0934284	      0.0000000
     -0.6752755	     -0.0990681	      0.0000000
     -0.6125714	     -0.1039778	      0.0000000
     -0.5467148	     -0.1080426	      0.0000000
     -0.4783097	     -0.1111525	      0.0000000
     -0.4080262	     -0.1132059	      0.0000000
     -0.3365960	     -0.1141133	      0.0000000
     -0.2648069	     -0.1138021	      0.0000000
     -0.1934938	     -0.1122212	      0.0000000
     -0.1235277	     -0.1093475	      0.0000000
     -0.0558032	     -0.1051896	      0.0000000
      0.0087893	     -0.0998026	      0.0000000
      0.0693453	     -0.0932890	      0.0000000
      0.1250705	     -0.0857783	      0.0000000
      0.1752264	     -0.0774179	      0.0000000
      0.2191798	     -0.0684114	      0.0000000
      0.2564239	     -0.0589860	      0.0000000
      0.2866014	     -0.0493834	      0.0000000
      0.3095177	     -0.0398574	      0.0000000
      0.3251583	     -0.0306595	      0.0000000
      0.3336892	     -0.0220263	      0.0000000
      0.3354568	     -0.0141712	      0.0000000
      0.3309693	     -0.0072709	      0.0000000
      0.3208942	     -0.0014389	      0.0000000
      0.3059787	      0.0033255	      0.0000000
      0.2870436	      0.0070687	      0.0000000
      0.2648931	      0.0098258	      0.0000000
      0.2403240	      0.0116629	      0.0000000
      0.2140861	      0.0126585	      0.0000000
      0.1868904	      0.0128906	      0.0000000
      0.1593879	      0.0124208	      0.0000000
      0.1322146	      0.0112672	      0.0000000
      0.1059515	      0.0094127	      0.0000000
      0.0812543	      0.0067661	      0.0000000
      0.0586668	      0.0033293	      0.0000000
      0.0389374	     -0.0008817	      0.0000000
      0.0223288	     -0.0048543	      0.0000000
      0.0095432	     -0.0071645	      0.0000000
      0.0000000	      0.0000000	      0.0000000
      0.0000000	      0.0000000	      0.0000000
     -0.0115708	     -0.0302815	      0.0000000
     -0.0088396	     -0.0515323	      0.0000000
      0.0039759	     -0.0650712	      0.0000000
      0.0195907	     -0.0721739	      0.0000000
      0.0381721	     -0.0741387	      0.0000000
      0.0561397	     -0.0721569	      0.0000000
      0.0725376	     -0.0672999	      0.0000000
      0.0857576	     -0.0605506	      0.0000000
      0.0952014	     -0.0527493	      0.0000000
      0.1003451	     -0.0445882	      0.0000000
      0.1011110	     -0.0365801	      0.0000000
      0.0975565	     -0.0290631	      0.0000000
      0.0899115	     -0.0222074	      0.0000000
      0.0784445	     -0.0160430	      0.0000000
      0.0634398	     -0.0104998	      0.0000000
      0.0451312	     -0.0054384	      0.0000000
      0.0237073	     -0.0006897	      0.0000000
     -0.0007178	      0.0039100	      0.0000000
     -0.0280682	      0.0084894	      0.0000000
     -0.0583066	      0.0131458	      0.0000000
     -0.0914349	      0.0179377	      0.0000000
     -0.1274641	      0.0228886	      0.0000000
     -0.1663992	      0.0279857	      0.0000000
     -0.2082227	      0.0331881	      0.0000000
     -0.2528892	      0.0384425	      0.0000000
     -0.3003144	      0.0436848	      0.0000000
     -0.3503728	      0.0488444	      0.0000000
     -0.4028959	      0.0538467	      0.0000000
     -0.4576715	      0.0586155	      0.0000000
     -0.5144460	      0.0630738	      0.0000000
     -0.5729251	      0.0671454	      0.0000000
     -0.6327776	      0.0707547	      0.0000000
     -0.6936404	      0.0738281	      0.0000000
     -0.7551215	      0.0762975	      0.0000000
     -0.8168032	      0.0781001	      0.0000000
     -0.8782471	      0.0791784	      0.0000000
     -0.9389991	      0.0794805	      0.0000000
     -0.9985947	      0.0789615	      0.0000000
     -1.0565634	      0.0775831	      0.0000000
     -1.1124338	      0.0753149	      0.0000000
     -1.1657383	      0.0721341	      0.0000000
     -1.2160172	      0.0680257	      0.0000000
     -1.2628228	      0.0629831	      0.0000000
     -1.3057232	      0.0570077	      0.0000000
     -1.3443054	      0.0501089	      0.0000000
     -1.3781781	      0.0423044	      0.0000000
     -1.4069735	      0.0336192	      0.0000000
     -1.4303491	      0.0240858	      0.0000000
     -1.4479784	      0.0137379	      0.0000000
     -1.4595872	      0.0026123	      0.0000000
     -1.4648639	     -0.0092890	      0.0000000
     -1.4636340	     -0.0219099	      0.0000000
     -1.4557581	     -0.0351228	      0.0000000
     -1.4411514	     -0.0488019	      0.0000000
     -1.4197711	     -0.0628171	      0.0000000
     -1.3916241	     -0.0770357	      0.0000000
     -1.3567660	     -0.0913188	      0.0000000
     -1.3153037	     -0.1055204	      0.0000000
     -1.2673971	     -0.1194859	      0.0000000
     -1.2132611	     -0.1330520	      0.0000000
     -1.1531683	     -0.1460471	      0.0000000
     -1.0874506	     -0.1582920	      0.0000000
     -1.0165022	     -0.1696013	      0.0000000
     -0.9407816	     -0.1797855	      0.0000000
     -0.8608135	     -0.1886536	      0.0000000
     -0.7771897	     -0.1960168	      0.0000000
     -0.6905703	     -0.2016927	      0.0000000
     -0.6016823	     -0.2055100	      0.0000000
     -0.5113181	     -0.2073149	      0.0000000
     -0.4203313	     -0.2069774	      0.0000000
     -0.3296313	     -0.2043986	      0.0000000
     -0.2401749	     -0.1995194	      0.0000000
     -0.1529553	     -0.1923292	      0.0000000
     -0.0689902	     -0.1828773	      0.0000000
      0.0107028	     -0.1712943	      0.0000000
      0.0850845	     -0.1577872	      0.0000000
      0.1532552	     -0.1426248	      0.0000000
      0.2143662	     -0.1261076	      0.0000000
      0.2677076	     -0.1086187	      0.0000000
      0.3127046	     -0.0905702	      0.0000000
      0.3489481	     -0.0724061	      0.0000000
      0.3762257	     -0.0545840	      0.0000000
      0.3945283	     -0.0375488	      0.0000000
      0.4040586	     -0.0217190	      0.0000000
      0.4052319	     -0.0074603	      0.0000000
      0.3986539	      0.0049378	      0.0000000
      0.3851447	      0.0153506	      0.0000000
      0.3656899	      0.0237844	      0.0000000
      0.3412571	      0.0302720	      0.0000000
      0.3128572	      0.0349032	      0.0000000
      0.2814709	      0.0377985	      0.0000000
      0.2480571	      0.0390858	      0.0000000
      0.2135163	      0.0388749	      0.0000000
      0.1787365	      0.0372187	      0.0000000
      0.1445245	      0.0341180	      0.0000000
      0.1117787	      0.0294838	      0.0000000
      0.0812050	      0.0233270	      0.0000000
      0.0539157	      0.0156964	      0.0000000
      0.0302874	      0.0076274	      0.0000000
      0.0123796	      0.0004825	      0.0000000
      0.0000000	      0.0000000	      0.0000000
      0.0000000	      0.0000000	      0.0000000
     -0.0103093	     -0.0402649	      0.0000000
     -0.0064100	     -0.0696746	      0.0000000
      0.0072901	     -0.0889167	      0.0000000
      0.0234193	     -0.0991839	      0.0000000
      0.0421291	     -0.1019427	      0.0000000
      0.0597786	     -0.0987689	      0.0000000
      0.0753355	     -0.0911954	      0.0000000
      0.0871103	     -0.0806558	      0.0000000
      0.0944329	     -0.0684024	      0.0000000
      0.0967128	     -0.0554685	      0.0000000
      0.0938158	     -0.0426300	      0.0000000
      0.0857472	     -0.0304035	      0.0000000
      0.0726909	     -0.0190625	      0.0000000
      0.0548682	     -0.0086747	      0.0000000
      0.0325258	      0.0008515	      0.0000000
      0.0058766	      0.0097050	      0.0000000
     -0.0248643	      0.0180830	      0.0000000
     -0.0595364	      0.0261957	      0.0000000
     -0.0980275	      0.0342175	      0.0000000
     -0.1402670	      0.0422808	      0.0000000
     -0.1862007	      0.0504640	      0.0000000
     -0.2357721	      0.0587871	      0.0000000
     -0.2889041	      0.0672204	      0.0000000
     -0.3454876	      0.0756934	      0.0000000
     -0.4053729	      0.0841119	      0.0000000
     -0.4683615	      0.0923656	      0.0000000
     -0.5342049	      0.1003357	      0.0000000
     -0.6026045	      0.1078992	      0.0000000
     -0.6732138	      0.1149328	      0.0000000
     -0.7456414	      0.1213150	      0.0000000
     -0.8194556	      0.1269284	      0.0000000
     -0.8941900	      0.1316611	      0.0000000
     -0.9693503	      0.1354085	      0.0000000
     -1.0444197	      0.1380761	      0.0000000
     -1.1188647	      0.1395798	      0.0000000
     -1.1921425	      0.1398465	      0.0000000
     -1.2637065	      0.1388150	      0.0000000
     -1.3330132	      0.1364364	      0.0000000
     -1.3995281	      0.1326743	      0.0000000
     -1.4627304	      0.1275051	      0.0000000
     -1.5221186	      0.1209179	      0.0000000
     -1.5772143	      0.1129142	      0.0000000
     -1.6275657	      0.1035074	      0.0000000
     -1.6727508	      0.0927227	      0.0000000
     -1.7123792	      0.0805957	      0.0000000
     -1.7460942	      0.0671726	      0.0000000
     -1.7735729	      0.0525080	      0.0000000
     -1.7945279	      0.0366640	      0.0000000
     -1.8086993	      0.0197083	      0.0000000
     -1.8158958	      0.0017041	      0.0000000
     -1.8158668	     -0.0172887	      0.0000000
     -1.8085883	     -0.0371224	      0.0000000
     -1.7940064	     -0.0576147	      0.0000000
     -1.7721306	     -0.0785994	      0.0000000
     -1.7429951	     -0.0999023	      0.0000000
     -1.7066755	     -0.1213440	      0.0000000
     -1.6632847	     -0.1427372	      0.0000000
     -1.6129772	     -0.1638850	      0.0000000
     -1.5559499	     -0.1845800	      0.0000000
     -1.4924450	     -0.2046042	      0.0000000
     -1.4227523	     -0.2237286	      0.0000000
     -1.3472123	     -0.2417143	      0.0000000
     -1.2662186	     -0.2583135	      0.0000000
     -1.1802219	     -0.2732725	      0.0000000
     -1.0897320	     -0.2863341	      0.0000000
     -0.9953209	     -0.2972422	      0.0000000
     -0.8976247	     -0.3057468	      0.0000000
     -0.7973446	     -0.3116100	      0.0000000
     -0.6952468	     -0.3146137	      0.0000000
     -0.5921614	     -0.3145675	      0.0000000
     -0.4889789	     -0.3113187	      0.0000000
     -0.3866447	     -0.3047624	      0.0000000
     -0.2861527	     -0.2948530	      0.0000000
     -0.1885314	     -0.2816185	      0.0000000
     -0.0948432	     -0.2651740	      0.0000000
     -0.0061413	     -0.2457552	      0.0000000
      0.0764585	     -0.2236867	      0.0000000
      0.1520111	     -0.1994169	      0.0000000
      0.2196145	     -0.1734380	      0.0000000
      0.2785149	     -0.1463006	      0.0000000
      0.3280947	     -0.1186349	      0.0000000
      0.3679209	     -0.0910988	      0.0000000
      0.3977613	     -0.0643505	      0.0000000
      0.4176028	     -0.0390322	      0.0000000
      0.4276576	     -0.0157261	      0.0000000
      0.4283731	      0.0050362	      0.0000000
      0.4204172	      0.0228968	      0.0000000
      0.4048141	      0.0377561	      0.0000000
      0.3825713	      0.0496064	      0.0000000
      0.3547963	      0.0585165	      0.0000000
      0.3226031	      0.0646188	      0.0000000
      0.2871151	      0.0680706	      0.0000000
      0.2494157	      0.0690200	      0.0000000
      0.2105920	      0.0675567	      0.0000000
      0.1716401	      0.0637045	      0.0000000
      0.1336782	      0.0573811	      0.0000000
      0.0975832	      0.0485610	      0.0000000
      0.0648406	      0.0372302	      0.0000000
      0.0360436	      0.0241488	      0.0000000
      0.0143755	      0.0103354	      0.0000000
      0.0000000	      0.0000000	      0.0000000
      0.0000000	      0.0000000	      0.0000000
     -0.0095317	     -0.0506122	      0.0000000
     -0.0050779	     -0.0879235	      0.0000000
      0.0086474	     -0.1124287	      0.0000000
      0.0240599	     -0.1253203	      0.0000000
      0.0413253	     -0.1283051	      0.0000000
      0.0568274	     -0.1233416	      0.0000000
      0.0695688	     -0.1124232	      0.0000000
      0.0778826	     -0.0974309	      0.0000000
      0.0811096	     -0.0800268	      0.0000000
      0.0786524	     -0.0615820	      0.0000000
      0.0703557	     -0.0431322	      0.0000000
      0.0561844	     -0.0253716	      0.0000000
      0.0362646	     -0.0086674	      0.0000000
      0.0107588	      0.0068863	      0.0000000
     -0.0201194	      0.0213611	      0.0000000
     -0.0561031	      0.0349230	      0.0000000
     -0.0969717	      0.0478131	      0.0000000
     -0.1425491	      0.0602902	      0.0000000
     -0.1926911	      0.0725723	      0.0000000
     -0.2472727	      0.0848127	      0.0000000
     -0.3061629	      0.0970865	      0.0000000
     -0.3692088	      0.1093939	      0.0000000
     -0.4362212	      0.1216708	      0.0000000
     -0.5069665	      0.1338039	      0.0000000
     -0.5811607	      0.1456493	      0.0000000
     -0.6584665	      0.1570439	      0.0000000
     -0.7384940	      0.1678157	      0.0000000
     -0.8208030	      0.1777909	      0.0000000
     -0.9049086	      0.1867988	      0.0000000
     -0.9902865	      0.1946761	      0.0000000
     -1.0763805	      0.2012694	      0.0000000
     -1.1626105	      0.2064378	      0.0000000
     -1.2483802	      0.2100551	      0.0000000
     -1.3330855	      0.2120120	      0.0000000
     -1.4161216	      0.2122165	      0.0000000
     -1.4968910	      0.2105952	      0.0000000
     -1.5748103	      0.2070931	      0.0000000
     -1.6493165	      0.2016739	      0.0000000
     -1.7198729	      0.1943196	      0.0000000
     -1.7859734	      0.1850301	      0.0000000
     -1.8471467	      0.1738222	      0.0000000
     -1.9029587	      0.1607288	      0.0000000
     -1.9530152	      0.1457975	      0.0000000
     -1.9969622	      0.1290894	      0.0000000
     -2.0344873	      0.1106777	      0.0000000
     -2.0653189	      0.0906466	      0.0000000
     -2.0892261	      0.0690891	      0.0000000
     -2.1060168	      0.0461049	      0.0000000
     -2.1155369	      0.0218024	      0.0000000
     -2.1176928	     -0.0037269	      0.0000000
     -2.1123398	     -0.0303412	      0.0000000
     -2.0995807	     -0.0578074	      0.0000000
     -2.0794146	     -0.0859230	      0.0000000
     -2.0519127	     -0.1144886	      0.0000000
     -2.0171521	     -0.1432986	      0.0000000
     -1.9752407	     -0.1721391	      0.0000000
     -1.9263106	     -0.2007857	      0.0000000
     -1.8705238	     -0.2290024	      0.0000000
     -1.8080733	     -0.2565402	      0.0000000
     -1.7391872	     -0.2831361	      0.0000000
     -1.6641312	     -0.3085134	      0.0000000
     -1.5832126	     -0.3323818	      0.0000000
     -1.4967848	     -0.3544390	      0.0000000
     -1.4052507	     -0.3743729	      0.0000000
     -1.3090670	     -0.3918655	      0.0000000
     -1.2087484	     -0.4065967	      0.0000000
     -1.1048704	     -0.4182508	      0.0000000
     -0.9980725	     -0.4265237	      0.0000000
     -0.8890592	     -0.4311310	      0.0000000
     -0.7786012	     -0.4318186	      0.0000000
     -0.6675334	     -0.4283736	      0.0000000
     -0.5567520	     -0.4206371	      0.0000000
     -0.4472094	     -0.4085180	      0.0000000
     -0.3399063	     -0.3920080	      0.0000000
     -0.2358816	     -0.3712008	      0.0000000
     -0.1362088	     -0.3462993	      0.0000000
     -0.0419668	     -0.3176680	      0.0000000
      0.0457297	     -0.2857896	      0.0000000
      0.1258494	     -0.2512953	      0.0000000
      0.1974764	     -0.2148835	      0.0000000
      0.2598124	     -0.1773152	      0.0000000
      0.3122315	     -0.1394447	      0.0000000
      0.3542821	     -0.1021391	      0.0000000
      0.3857259	     -0.0662661	      0.0000000
      0.4065398	     -0.0326462	      0.0000000
      0.4169867	     -0.0020448	      0.0000000
      0.4174514	      0.0248505	      0.0000000
      0.4088584	      0.0477266	      0.0000000
      0.3921766	      0.0665043	      0.0000000
      0.3685098	      0.0811854	      0.0000000
      0.3390190	      0.0918757	      0.0000000
      0.3049123	      0.0987311	      0.0000000
      0.2673888	      0.1019152	      0.0000000
      0.2276814	      0.1015401	      0.0000000
      0.1869411	      0.0976395	      0.0000000
      0.1464830	      0.0901226	      0.0000000
      0.1073652	      0.0788775	      0.0000000
      0.0714133	      0.0637433	      0.0000000
      0.0394638	      0.0450066	      0.0000000
      0.0155098	      0.0230919	      0.0000000
      0.0000000	      0.0000000	      0.0000000
      0.0000000	      0.0000000	      0.0000000
     -0.0092402	     -0.0616895	      0.0000000
     -0.0049107	     -0.1064182	      0.0000000
      0.0079105	     -0.1353750	      0.0000000
      0.0214408	     -0.1499862	      0.0000000
      0.0358711	     -0.1523410	      0.0000000
      0.0476626	     -0.1448124	      0.0000000
      0.0559193	     -0.1298540	      0.0000000