# vtk DataFile Version 2.0
vw
ASCII
DATASET STRUCTURED_POINTS
DIMENSIONS  102  102    1
ORIGIN      0.0000000      0.0000000      0.0000000
SPACING      0.0100000      0.0100000      0.0100000
POINT_DATA  10404
VECTORS velocity float
      0.0000000	      0.0000000	      0.0000000
      0.0000000	      0.0000000	      0.0000000
      0.0000000	      0.0000000	      0.0000000
      0.0000000	      0.0000000	      0.0000000
      0.0000000	      0.0000000	      0.0000000
      0.0000000	      0.0000000	      0.0000000
      0.0000000	      0.0000000	      0.0000000
      0.0000000	      0.0000000	      0.0000000
      0.0000000	      0.0000000	      0.0000000
      0.0000000	      0.0000000	      0.0000000
      0.0000000	      0.0000000	      0.0000000
      0.0000000	      0.0000000	      0.0000000
      0.0000000	      0.0000000	      0.0000000
      0.0000000	      0.0000000	      0.0000000
      0.0000000	      0.0000000	      0.0000000
      0.0000000	      0.0000000	      0.0000000
      0.0000000	      0.0000000	      0.0000000
      0.0000000	      0.0000000	      0.0000000
      0.0000000	      0.0000000	      0.0000000
      0.0000000	      0.0000000	      0.0000000
      0.0000000	      0.0000000	      0.0000000
      0.0000000	      0.0000000	      0.0000000
      0.0000000	      0.0000000	      0.0000000
      0.0000000	      0.0000000	      0.0000000
      0.0000000	      0.0000000	      0.0000000
      0.0000000	      0.0000000	      0.0000000
      0.0000000	      0.0000000	      0.0000000
      0.0000000	      0.0000000	      0.0000000
      0.0000000	      0.0000000	      0.0000000
      0.0000000	      0.0000000	      0.0000000
      0.0000000	      0.0000000	      0.0000000
      0.0000000	      0.0000000	      0.0000000
      0.0000000	      0.0000000	      0.0000000
      0.0000000	      0.0000000	      0.0000000
      0.0000000	      0.0000000	      0.0000000
      0.0000000	      0.0000000	      0.0000000
      0.0000000	      0.0000000	      0.0000000
      0.0000000	      0.0000000	      0.0000000
      0.0000000	      0.0000000	      0.0000000
      0.0000000	      0.0000000	      0.0000000
      0.0000000	      0.0000000	      0.0000000
      0.0000000	      0.0000000	      0.0000000
      0.0000000	      0.0000000	      0.0000000
      0.0000000	      0.0000000	      0.0000000
      0.0000000	      0.0000000	      0.0000000
      0.0000000	      0.0000000	      0.0000000
      0.0000000	      0.0000000	      0.0000000
      0.0000000	      0.0000000	      0.0000000
      0.0000000	      0.0000000	      0.0000000
      0.0000000	      0.0000000	      0.0000000
      0.0000000	      0.0000000	      0.0000000
      0.0000000	      0.0000000	      0.0000000
      0.0000000	      0.0000000	      0.0000000
      0.0000000	      0.0000000	      0.0000000
      0.0000000	      0.0000000	      0.0000000
      0.0000000	      0.0000000	      0.0000000
      0.0000000	      0.0000000	      0.0000000
      0.0000000	      0.0000000	      0.0000000
      0.0000000	      0.0000000	      0.0000000
      0.0000000	      0.0000000	      0.0000000
      0.0000000	      0.0000000	      0.0000000
      0.0000000	      0.0000000	      0.0000000
      0.0000000	      0.0000000	      0.0000000
      0.0000000	      0.0000000	      0.0000000
      0.0000000	      0.0000000	      0.0000000
      0.0000000	      0.0000000	      0.0000000
      0.0000000	      0.0000000	      0.0000000
      0.0000000	      0.0000000	      0.0000000
      0.0000000	      0.0000000	      0.0000000
      0.0000000	      0.0000000	      0.0000000
      0.0000000	      0.0000000	      0.0000000
      0.0000000	      0.0000000	      0.0000000
      0.0000000	      0.0000000	      0.0000000
      0.0000000	      0.0000000	      0.0000000
      0.0000000	      0.0000000	      0.0000000
      0.0000000	      0.0000000	      0.0000000
      0.0000000	      0.0000000	      0.0000000
      0.0000000	      0.0000000	      0.0000000
      0.0000000	      0.0000000	      0.0000000
      0.0000000	      0.0000000	      0.0000000
      0.0000000	      0.0000000	      0.0000000
      0.0000000	      0.0000000	      0.0000000
      0.0000000	      0.0000000	      0.0000000
      0.0000000	      0.0000000	      0.0000000
      0.0000000	      0.0000000	      0.0000000
      0.0000000	      0.0000000	      0.0000000
      0.0000000	      0.0000000	      0.0000000
      0.0000000	      0.0000000	      0.0000000
      0.0000000	      0.0000000	      0.0000000
      0.0000000	      0.0000000	      0.0000000
      0.0000000	      0.0000000	      0.0000000
      0.0000000	      0.0000000	      0.0000000
      0.0000000	      0.0000000	      0.0000000
      0.0000000	      0.0000000	      0.0000000
      0.0000000	      0.0000000	      0.0000000
      0.0000000	      0.0000000	      0.0000000
      0.0000000	      0.0000000	      0.0000000
      0.0000000	      0.0000000	      0.0000000
      0.0000000	      0.0000000	      0.0000000
      0.0000000	      0.0000000	      0.0000000
      0.0000000	      0.0000000	      0.0000000
      0.0000000	      0.0000000	      0.0000000
      0.0000000	      0.0000000	      0.0000000
     -0.0005573	     -0.0008180	      0.0000000
     -0.0007224	     -0.0009122	      0.0000000
     -0.0008049	     -0.0008436	      0.0000000
     -0.0011871	     -0.0006783	      0.0000000
     -0.0017259	     -0.0005237	      0.0000000
     -0.0025219	     -0.0003781	      0.0000000
     -0.0034807	     -0.0002616	      0.0000000
     -0.0046174	     -0.0001660	      0.0000000
     -0.0058727	     -0.0000938	      0.0000000
     -0.0072382	     -0.0000383	      0.0000000
     -0.0086777	      0.0000015	      0.0000000
     -0.0101791	      0.0000301	      0.0000000
     -0.0117209	      0.0000491	      0.0000000
     -0.0132933	      0.0000613	      0.0000000
     -0.0148841	      0.0000681	      0.0000000
     -0.0164866	      0.0000711	      0.0000000
     -0.0180942	      0.0000713	      0.0000000
     -0.0197030	      0.0000697	      0.0000000
     -0.0213095	      0.0000666	      0.0000000
     -0.0229113	      0.0000627	      0.0000000
     -0.0245066	      0.0000579	      0.0000000
     -0.0260938	      0.0000526	      0.0000000
     -0.0276714	      0.0000466	      0.0000000
     -0.0292382	      0.0000399	      0.0000000
     -0.0307924	      0.0000324	      0.0000000
     -0.0323324	      0.0000238	      0.0000000
     -0.0338559	      0.0000140	      0.0000000
     -0.0353607	      0.0000026	      0.0000000
     -0.0368437	     -0.0000106	      0.0000000
     -0.0383017	     -0.0000258	      0.0000000
     -0.0397311	     -0.0000435	      0.0000000
     -0.0411276	     -0.0000638	      0.0000000
     -0.0424867	     -0.0000870	      0.0000000
     -0.0438034	     -0.0001135	      0.0000000
     -0.0450720	     -0.0001435	      0.0000000
     -0.0462870	     -0.0001771	      0.0000000
     -0.0474419	     -0.0002148	      0.0000000
     -0.0485305	     -0.0002565	      0.0000000
     -0.0495457	     -0.0003026	      0.0000000
     -0.0504808	     -0.0003530	      0.0000000
     -0.0513285	     -0.0004079	      0.0000000
     -0.0520818	     -0.0004673	      0.0000000
     -0.0527335	     -0.0005311	      0.0000000
     -0.0532766	     -0.0005992	      0.0000000
     -0.0537044	     -0.0006715	      0.0000000
     -0.0540104	     -0.0007479	      0.0000000
     -0.0541881	     -0.0008282	      0.0000000
     -0.0542316	     -0.0009123	      0.0000000
     -0.0541353	     -0.0009997	      0.0000000
     -0.0538941	     -0.0010901	      0.0000000
     -0.0535040	     -0.0011830	      0.0000000
     -0.0529616	     -0.0012776	      0.0000000
     -0.0522648	     -0.0013732	      0.0000000
     -0.0514126	     -0.0014692	      0.0000000
     -0.0504051	     -0.0015646	      0.0000000
     -0.0492437	     -0.0016587	      0.0000000
     -0.0479314	     -0.0017506	      0.0000000
     -0.0464722	     -0.0018392	      0.0000000
     -0.0448718	     -0.0019239	      0.0000000
     -0.0431371	     -0.0020036	      0.0000000
     -0.0412765	     -0.0020775	      0.0000000
     -0.0392996	     -0.0021447	      0.0000000
     -0.0372172	     -0.0022046	      0.0000000
     -0.0350415	     -0.0022563	      0.0000000
     -0.0327854	     -0.0022993	      0.0000000
     -0.0304630	     -0.0023329	      0.0000000
     -0.0280890	     -0.0023569	      0.0000000
     -0.0256788	     -0.0023708	      0.0000000
     -0.0232483	     -0.0023745	      0.0000000
     -0.0208133	     -0.0023678	      0.0000000
     -0.0183903	     -0.0023508	      0.0000000
     -0.0159953	     -0.0023237	      0.0000000
     -0.0136442	     -0.0022865	      0.0000000
     -0.0113525	     -0.0022397	      0.0000000
     -0.0091352	     -0.0021838	      0.0000000
     -0.0070066	     -0.0021191	      0.0000000
     -0.0049805	     -0.0020463	      0.0000000
     -0.0030695	     -0.0019660	      0.0000000
     -0.0012857	     -0.0018787	      0.0000000
      0.0003603	     -0.0017852	      0.0000000
      0.0018580	     -0.0016862	      0.0000000
      0.0031990	     -0.0015822	      0.0000000
      0.0043748	     -0.0014740	      0.0000000
      0.0053793	     -0.0013623	      0.0000000
      0.0062056	     -0.0012477	      0.0000000
      0.0068505	     -0.0011309	      0.0000000
      0.0073087	     -0.0010126	      0.0000000
      0.0075809	     -0.0008941	      0.0000000
      0.0076637	     -0.0007762	      0.0000000
      0.0075637	     -0.0006608	      0.0000000
      0.0072807	     -0.0005495	      0.0000000
      0.0068308	     -0.0004460	      0.0000000
      0.0062195	     -0.0003530	      0.0000000
      0.0054785	     -0.0002779	      0.0000000
      0.0046236	     -0.0002248	      0.0000000
      0.0037105	     -0.0002084	      0.0000000
      0.0027736	     -0.0002291	      0.0000000
      0.0018905	     -0.0003069	      0.0000000
      0.0011190	     -0.0003900	      0.0000000
      0.0004810	     -0.0004380	      0.0000000
      0.0000000	      0.0000000	      0.0000000
      0.0000000	      0.0000000	      0.0000000
     -0.0007800	     -0.0010924	      0.0000000
     -0.0012678	     -0.0011376	      0.0000000
     -0.0018391	     -0.0008914	      0.0000000
     -0.0028020	     -0.0004545	      0.0000000
     -0.0040537	     -0.0000258	      0.0000000
     -0.0056891	      0.0003879	      0.0000000
     -0.0076134	      0.0007359	      0.0000000
     -0.0098303	      0.0010309	      0.0000000
     -0.0122661	      0.0012636	      0.0000000
     -0.0148968	      0.0014478	      0.0000000
     -0.0176705	      0.0015858	      0.0000000
     -0.0205612	      0.0016885	      0.0000000
     -0.0235344	      0.0017606	      0.0000000
     -0.0265697	      0.0018098	      0.0000000
     -0.0296457	      0.0018403	      0.0000000
     -0.0327485	      0.0018573	      0.0000000
     -0.0358654	      0.0018635	      0.0000000
     -0.0389876	      0.0018621	      0.0000000
     -0.0421076	      0.0018548	      0.0000000
     -0.0452199	      0.0018432	      0.0000000
     -0.0483200	      0.0018279	      0.0000000
     -0.0514040	      0.0018096	      0.0000000
     -0.0544683	      0.0017883	      0.0000000
     -0.0575094	      0.0017639	      0.0000000
     -0.0605237	      0.0017360	      0.0000000
     -0.0635071	      0.0017041	      0.0000000
     -0.0664553	      0.0016674	      0.0000000
     -0.0693629	      0.0016253	      0.0000000
     -0.0722245	      0.0015770	      0.0000000
     -0.0750334	      0.0015215	      0.0000000
     -0.0777824	      0.0014579	      0.0000000
     -0.0804636	      0.0013854	      0.0000000
     -0.0830683	      0.0013031	      0.0000000
     -0.0855869	      0.0012101	      0.0000000
     -0.0880092	      0.0011056	      0.0000000
     -0.0903244	      0.0009889	      0.0000000
     -0.0925210	      0.0008593	      0.0000000
     -0.0945870	      0.0007163	      0.0000000
     -0.0965101	      0.0005593	      0.0000000
     -0.0982775	      0.0003880	      0.0000000
     -0.0998762	      0.0002023	      0.0000000
     -0.1012932	      0.0000022	      0.0000000
     -0.1025157	     -0.0002121	      0.0000000
     -0.1035310	     -0.0004403	      0.0000000
     -0.1043270	     -0.0006819	      0.0000000
     -0.1048920	     -0.0009365	      0.0000000
     -0.1052149	     -0.0012035	      0.0000000
     -0.1052851	     -0.0014822	      0.0000000
     -0.1050930	     -0.0017715	      0.0000000
     -0.1046302	     -0.0020699	      0.0000000
     -0.1038897	     -0.0023756	      0.0000000
     -0.1028663	     -0.0026866	      0.0000000
     -0.1015566	     -0.0030008	      0.0000000
     -0.0999592	     -0.0033156	      0.0000000
     -0.0980749	     -0.0036285	      0.0000000
     -0.0959069	     -0.0039369	      0.0000000
     -0.0934606	     -0.0042379	      0.0000000
     -0.0907439	     -0.0045288	      0.0000000
     -0.0877672	     -0.0048068	      0.0000000
     -0.0845432	     -0.0050690	      0.0000000
     -0.0810870	     -0.0053127	      0.0000000
     -0.0774161	     -0.0055355	      0.0000000
     -0.0735500	     -0.0057348	      0.0000000
     -0.0695104	     -0.0059084	      0.0000000
     -0.0653206	     -0.0060543	      0.0000000
     -0.0610056	     -0.0061709	      0.0000000
     -0.0565918	     -0.0062568	      0.0000000
     -0.0521066	     -0.0063109	      0.0000000
     -0.0475783	     -0.0063326	      0.0000000
     -0.0430356	     -0.0063213	      0.0000000
     -0.0385076	     -0.0062772	      0.0000000
     -0.0340231	     -0.0062005	      0.0000000
     -0.0296108	     -0.0060919	      0.0000000
     -0.0252987	     -0.0059524	      0.0000000
     -0.0211141	     -0.0057830	      0.0000000
     -0.0170831	     -0.0055853	      0.0000000
     -0.0132308	     -0.0053608	      0.0000000
     -0.0095806	     -0.0051114	      0.0000000
     -0.0061549	     -0.0048389	      0.0000000
     -0.0029741	     -0.0045453	      0.0000000
     -0.0000574	     -0.0042326	      0.0000000
      0.0025785	     -0.0039030	      0.0000000
      0.0049175	     -0.0035586	      0.0000000
      0.0069472	     -0.0032017	      0.0000000
      0.0086547	     -0.0028343	      0.0000000
      0.0100327	     -0.0024592	      0.0000000
      0.0110719	     -0.0020789	      0.0000000
      0.0117717	     -0.0016973	      0.0000000
      0.0121276	     -0.0013180	      0.0000000
      0.0121491	     -0.0009471	      0.0000000
      0.0118390	     -0.0005905	      0.0000000
      0.0112228	     -0.0002588	      0.0000000
      0.0103146	      0.0000387	      0.0000000
      0.0091652	      0.0002832	      0.0000000
      0.0078052	      0.0004615	      0.0000000
      0.0063223	      0.0005418	      0.0000000
      0.0047663	      0.0005176	      0.0000000
      0.0032674	      0.0003490	      0.0000000
      0.0018832	      0.0001077	      0.0000000
      0.0007770	     -0.0001820	      0.0000000
      0.0000000	      0.0000000	      0.0000000
      0.0000000	      0.0000000	      0.0000000
     -0.0009729	     -0.0009462	      0.0000000
     -0.0018233	     -0.0008005	      0.0000000
     -0.0029480	     -0.0002383	      0.0000000
     -0.0045660	      0.0005919	      0.0000000
     -0.0065951	      0.0014279	      0.0000000
     -0.0091024	      0.0022379	      0.0000000
     -0.0119992	      0.0029391	      0.0000000
     -0.0152728	      0.0035418	      0.0000000
     -0.0188446	      0.0040287	      0.0000000
     -0.0226771	      0.0044200	      0.0000000
     -0.0267097	      0.0047197	      0.0000000
     -0.0309048	      0.0049468	      0.0000000
     -0.0352195	      0.0051104	      0.0000000
     -0.0396243	      0.0052249	      0.0000000
     -0.0440909	      0.0052990	      0.0000000
     -0.0485988	      0.0053427	      0.0000000
     -0.0531300	      0.0053620	      0.0000000
     -0.0576710	      0.0053633	      0.0000000
     -0.0622106	      0.0053502	      0.0000000
     -0.0667400	      0.0053261	      0.0000000
     -0.0712515	      0.0052927	      0.0000000
     -0.0757387	      0.0052512	      0.0000000
     -0.0801956	      0.0052020	      0.0000000
     -0.0846163	      0.0051449	      0.0000000
     -0.0889947	      0.0050793	      0.0000000
     -0.0933245	      0.0050040	      0.0000000
     -0.0975986	      0.0049179	      0.0000000
     -0.1018091	      0.0048193	      0.0000000
     -0.1059476	      0.0047067	      0.0000000
     -0.1100043	      0.0045783	      0.0000000
     -0.1139688	      0.0044322	      0.0000000
     -0.1178296	      0.0042668	      0.0000000
     -0.1215740	      0.0040801	      0.0000000
     -0.1251886	      0.0038705	      0.0000000
     -0.1286591	      0.0036363	      0.0000000
     -0.1319701	      0.0033761	      0.0000000
     -0.1351056	      0.0030885	      0.0000000
     -0.1380489	      0.0027723	      0.0000000
     -0.1407829	      0.0024267	      0.0000000
     -0.1432901	      0.0020511	      0.0000000
     -0.1455525	      0.0016450	      0.0000000
     -0.1475525	      0.0012087	      0.0000000
     -0.1492723	      0.0007424	      0.0000000
     -0.1506949	      0.0002471	      0.0000000
     -0.1518035	     -0.0002762	      0.0000000
     -0.1525824	     -0.0008262	      0.0000000
     -0.1530170	     -0.0014018	      0.0000000
     -0.1530933	     -0.0020013	      0.0000000
     -0.1527990	     -0.0026221	      0.0000000
     -0.1521231	     -0.0032612	      0.0000000
     -0.1510572	     -0.0039147	      0.0000000
     -0.1495947	     -0.0045786	      0.0000000
     -0.1477319	     -0.0052481	      0.0000000
     -0.1454676	     -0.0059183	      0.0000000
     -0.1428039	     -0.0065839	      0.0000000
     -0.1397456	     -0.0072395	      0.0000000
     -0.1363007	     -0.0078792	      0.0000000
     -0.1324807	     -0.0084975	      0.0000000
     -0.1283001	     -0.0090884	      0.0000000
     -0.1237766	     -0.0096464	      0.0000000
     -0.1189312	     -0.0101658	      0.0000000
     -0.1137877	     -0.0106414	      0.0000000
     -0.1083730	     -0.0110683	      0.0000000
     -0.1027163	     -0.0114419	      0.0000000
     -0.0968495	     -0.0117583	      0.0000000
     -0.0908065	     -0.0120138	      0.0000000
     -0.0846229	     -0.0122057	      0.0000000
     -0.0783357	     -0.0123318	      0.0000000
     -0.0719832	     -0.0123906	      0.0000000
     -0.0656043	     -0.0123811	      0.0000000
     -0.0592382	     -0.0123033	      0.0000000
     -0.0529240	     -0.0121576	      0.0000000
     -0.0467007	     -0.0119453	      0.0000000
     -0.0406064	     -0.0116682	      0.0000000
     -0.0346781	     -0.0113284	      0.0000000
     -0.0289518	     -0.0109288	      0.0000000
     -0.0234619	     -0.0104724	      0.0000000
     -0.0182408	     -0.0099628	      0.0000000
     -0.0133195	     -0.0094036	      0.0000000
     -0.0087266	     -0.0087988	      0.0000000
     -0.0044889	     -0.0081524	      0.0000000
     -0.0006304	     -0.0074686	      0.0000000
      0.0028260	     -0.0067520	      0.0000000
      0.0058621	     -0.0060073	      0.0000000
      0.0084598	     -0.0052390	      0.0000000
      0.0106074	     -0.0044529	      0.0000000
      0.0122923	     -0.0036548	      0.0000000
      0.0135117	     -0.0028525	      0.0000000
      0.0142603	     -0.0020548	      0.0000000
      0.0145486	     -0.0012738	      0.0000000
      0.0143817	     -0.0005230	      0.0000000
      0.0137913	      0.0001771	      0.0000000
      0.0127979	      0.0008058	      0.0000000
      0.0114651	      0.0013300	      0.0000000
      0.0098341	      0.0017208	      0.0000000
      0.0080145	      0.0019287	      0.0000000
      0.0060679	      0.0019309	      0.0000000
      0.0041652	      0.0016734	      0.0000000
      0.0023737	      0.0012083	      0.0000000
      0.0009622	      0.0005423	      0.0000000
      0.0000000	      0.0000000	      0.0000000
      0.0000000	      0.0000000	      0.0000000
     -0.0011433	     -0.0006312	      0.0000000
     -0.0023743	     -0.0000765	      0.0000000
     -0.0040949	      0.0009520	      0.0000000
     -0.0064131	      0.0022823	      0.0000000
     -0.0092588	      0.0036103	      0.0000000
     -0.0126540	      0.0048878	      0.0000000
     -0.0165186	      0.0060075	      0.0000000
     -0.0208199	      0.0069766	      0.0000000
     -0.0254810	      0.0077713	      0.0000000
     -0.0304520	      0.0084166	      0.0000000
     -0.0356690	      0.0089187	      0.0000000
     -0.0410850	      0.0093039	      0.0000000
     -0.0466521	      0.0095866	      0.0000000
     -0.0523333	      0.0097880	      0.0000000
     -0.0580954	      0.0099219	      0.0000000
     -0.0639120	      0.0100035	      0.0000000
     -0.0697609	      0.0100428	      0.0000000
     -0.0756241	      0.0100498	      0.0000000
     -0.0814869	      0.0100305	      0.0000000
     -0.0873368	      0.0099905	      0.0000000
     -0.0931635	      0.0099327	      0.0000000
     -0.0989574	      0.0098592	      0.0000000
     -0.1047101	      0.0097708	      0.0000000
     -0.1104130	      0.0096673	      0.0000000
     -0.1160575	      0.0095477	      0.0000000
     -0.1216346	      0.0094105	      0.0000000
     -0.1271347	      0.0092537	      0.0000000
     -0.1325471	      0.0090749	      0.0000000
     -0.1378605	      0.0088716	      0.0000000
     -0.1430622	      0.0086408	      0.0000000
     -0.1481385	      0.0083798	      0.0000000
     -0.1530745	      0.0080857	      0.0000000
     -0.1578543	      0.0077556	      0.0000000
     -0.1624608	      0.0073867	      0.0000000
     -0.1668757	      0.0069766	      0.0000000
     -0.1710799	      0.0065229	      0.0000000
     -0.1750535	      0.0060234	      0.0000000
     -0.1787757	      0.0054764	      0.0000000
     -0.1822253	      0.0048806	      0.0000000
     -0.1853808	      0.0042350	      0.0000000
     -0.1882202	      0.0035394	      0.0000000
     -0.1907219	      0.0027937	      0.0000000
     -0.1928645	      0.0019989	      0.0000000
     -0.1946271	      0.0011562	      0.0000000
     -0.1959896	      0.0002677	      0.0000000
     -0.1969329	     -0.0006643	      0.0000000
     -0.1974397	     -0.0016373	      0.0000000
     -0.1974939	     -0.0026485	      0.0000000
     -0.1970809	     -0.0036934	      0.0000000
     -0.1961889	     -0.0047668	      0.0000000
     -0.1948082	     -0.0058626	      0.0000000
     -0.1929322	     -0.0069739	      0.0000000
     -0.1905572	     -0.0080930	      0.0000000
     -0.1876831	     -0.0092119	      0.0000000
     -0.1843131	     -0.0103219	      0.0000000
     -0.1804543	     -0.0114141	      0.0000000
     -0.1761173	     -0.0124794	      0.0000000
     -0.1713169	     -0.0135084	      0.0000000
     -0.1660714	     -0.0144918	      0.0000000
     -0.1604031	     -0.0154205	      0.0000000
     -0.1543378	     -0.0162855	      0.0000000
     -0.1479051	     -0.0170785	      0.0000000
     -0.1411377	     -0.0177915	      0.0000000
     -0.1340715	     -0.0184173	      0.0000000
     -0.1267452	     -0.0189493	      0.0000000
     -0.1191999	     -0.0193820	      0.0000000
     -0.1114788	     -0.0197108	      0.0000000
     -0.1036267	     -0.0199320	      0.0000000
     -0.0956899	     -0.0200433	      0.0000000
     -0.0877152	     -0.0200432	      0.0000000
     -0.0797502	     -0.0199313	      0.0000000
     -0.0718421	     -0.0197084	      0.0000000
     -0.0640381	     -0.0193762	      0.0000000
     -0.0563842	     -0.0189374	      0.0000000
     -0.0489256	     -0.0183955	      0.0000000
     -0.0417058	     -0.0177548	      0.0000000
     -0.0347668	     -0.0170201	      0.0000000
     -0.0281483	     -0.0161968	      0.0000000
     -0.0218884	     -0.0152907	      0.0000000
     -0.0160221	     -0.0143080	      0.0000000
     -0.0105828	     -0.0132551	      0.0000000
     -0.0056004	     -0.0121388	      0.0000000
     -0.0011031	     -0.0109662	      0.0000000
      0.0028855	     -0.0097450	      0.0000000
      0.0063429	     -0.0084834	      0.0000000
      0.0092537	     -0.0071904	      0.0000000
      0.0116024	     -0.0058763	      0.0000000
      0.0133844	     -0.0045539	      0.0000000
      0.0145932	     -0.0032379	      0.0000000
      0.0152401	     -0.0019483	      0.0000000
      0.0153318	     -0.0007075	      0.0000000
      0.0149040	      0.0004526	      0.0000000
      0.0139812	      0.0014980	      0.0000000
      0.0126364	      0.0023796	      0.0000000
      0.0109163	      0.0030510	      0.0000000
      0.0089470	      0.0034429	      0.0000000
      0.0067959	      0.0035101	      0.0000000
      0.0046673	      0.0031772	      0.0000000
      0.0026372	      0.0024578	      0.0000000
      0.0010520	      0.0013275	      0.0000000
      0.0000000	      0.0000000	      0.0000000
      0.0000000	      0.0000000	      0.0000000
     -0.0013124	      0.0000328	      0.0000000
     -0.0029175	      0.0012135	      0.0000000
     -0.0052242	      0.0028703	      0.0000000
     -0.0082398	      0.0048184	      0.0000000
     -0.0118982	      0.0067361	      0.0000000
     -0.0161730	      0.0085610	      0.0000000
     -0.0209878	      0.0101701	      0.0000000
     -0.0262879	      0.0115674	      0.0000000
     -0.0319973	      0.0127244	      0.0000000
     -0.0380542	      0.0136706	      0.0000000
     -0.0443932	      0.0144153	      0.0000000
     -0.0509591	      0.0149920	      0.0000000
     -0.0577011	      0.0154207	      0.0000000
     -0.0645761	      0.0157300	      0.0000000
     -0.0715474	      0.0159393	      0.0000000
     -0.0785835	      0.0160695	      0.0000000
     -0.0856591	      0.0161352	      0.0000000
     -0.0927521	      0.0161502	      0.0000000
     -0.0998448	      0.0161236	      0.0000000
     -0.1069215	      0.0160631	      0.0000000
     -0.1139690	      0.0159734	      0.0000000
     -0.1209751	      0.0158577	      0.0000000
     -0.1279285	      0.0157169	      0.0000000
     -0.1348180	      0.0155512	      0.0000000
     -0.1416328	      0.0153593	      0.0000000
     -0.1483609	      0.0151390	      0.0000000
     -0.1549902	      0.0148876	      0.0000000
     -0.1615074	      0.0146017	      0.0000000
     -0.1678983	      0.0142776	      0.0000000
     -0.1741472	      0.0139114	      0.0000000
     -0.1802376	      0.0134989	      0.0000000
     -0.1861515	      0.0130360	      0.0000000
     -0.1918696	      0.0125188	      0.0000000
     -0.1973715	      0.0119433	      0.0000000
     -0.2026356	      0.0113059	      0.0000000
     -0.2076395	      0.0106033	      0.0000000
     -0.2123596	      0.0098326	      0.0000000
     -0.2167717	      0.0089914	      0.0000000
     -0.2208511	      0.0080778	      0.0000000
     -0.2245726	      0.0070907	      0.0000000
     -0.2279113	      0.0060298	      0.0000000
     -0.2308420	      0.0048954	      0.0000000
     -0.2333402	      0.0036888	      0.0000000
     -0.2353821	      0.0024121	      0.0000000
     -0.2369449	      0.0010683	      0.0000000
     -0.2380072	     -0.0003386	      0.0000000
     -0.2385492	     -0.0018045	      0.0000000
     -0.2385534	     -0.0033248	      0.0000000
     -0.2380042	     -0.0048927	      0.0000000
     -0.2368889	     -0.0065005	      0.0000000
     -0.2351976	     -0.0081389	      0.0000000
     -0.2329240	     -0.0097977	      0.0000000
     -0.2300652	     -0.0114660	      0.0000000
     -0.2266221	     -0.0131317	      0.0000000
     -0.2225998	     -0.0147823	      0.0000000
     -0.2180076	     -0.0164050	      0.0000000
     -0.2128588	     -0.0179864	      0.0000000
     -0.2071712	     -0.0195130	      0.0000000
     -0.2009669	     -0.0209715	      0.0000000
     -0.1942723	     -0.0223486	      0.0000000
     -0.1871177	     -0.0236317	      0.0000000
     -0.1795376	     -0.0248084	      0.0000000
     -0.1715701	     -0.0258676	      0.0000000
     -0.1632565	     -0.0267987	      0.0000000
     -0.1546416	     -0.0275925	      0.0000000
     -0.1457724	     -0.0282410	      0.0000000
     -0.1366987	     -0.0287377	      0.0000000
     -0.1274717	     -0.0290772	      0.0000000
     -0.1181442	     -0.0292561	      0.0000000
     -0.1087699	     -0.0292722	      0.0000000
     -0.0994029	     -0.0291250	      0.0000000
     -0.0900973	     -0.0288155	      0.0000000
     -0.0809066	     -0.0283460	      0.0000000
     -0.0718835	     -0.0277203	      0.0000000
     -0.0630796	     -0.0269433	      0.0000000
     -0.0545446	     -0.0260208	      0.0000000
     -0.0463264	     -0.0249598	      0.0000000
     -0.0384707	     -0.0237679	      0.0000000
     -0.0310211	     -0.0224532	      0.0000000
     -0.0240178	     -0.0210246	      0.0000000
     -0.0174993	     -0.0194912	      0.0000000
     -0.0115001	     -0.0178626	      0.0000000
     -0.0060529	     -0.0161492	      0.0000000
     -0.0011850	     -0.0143620	      0.0000000
      0.0030770	     -0.0125131	      0.0000000
      0.0067149	     -0.0106163	      0.0000000
      0.0097107	     -0.0086867	      0.0000000
      0.0120581	     -0.0067433	      0.0000000
      0.0137498	     -0.0048080	      0.0000000
      0.0147974	     -0.0029095	      0.0000000
      0.0152082	     -0.0010811	      0.0000000
      0.0150208	      0.0006325	      0.0000000
      0.0142623	      0.0021818	      0.0000000
      0.0130121	      0.0035005	      0.0000000
      0.0113211	      0.0045213	      0.0000000
      0.0093277	      0.0051543	      0.0000000
      0.0071050	      0.0053251	      0.0000000
      0.0048815	      0.0049348	      0.0000000
      0.0027435	      0.0039427	      0.0000000
      0.0010824	      0.0022832	      0.0000000
      0.0000000	      0.0000000	      0.0000000
      0.0000000	      0.0000000	      0.0000000
     -0.0014770	      0.0009092	      0.0000000
     -0.0034473	      0.0029212	      0.0000000
     -0.0063258	      0.0053625	      0.0000000
     -0.0100262	      0.0080421	      0.0000000
     -0.0144821	      0.0106325	      0.0000000
     -0.0196164	      0.0130659	      0.0000000
     -0.0253544	      0.0152127	      0.0000000