# vtk DataFile Version 2.0
vw
ASCII
DATASET STRUCTURED_POINTS
DIMENSIONS  102  102    1
ORIGIN      0.0000000      0.0000000      0.0000000
SPACING      0.0100000      0.0100000      0.0100000
POINT_DATA  10404
VECTORS velocity float
      0.0000000	      0.0000000	      0.0000000
      0.0000000	      0.0000000	      0.0000000
      0.0000000	      0.0000000	      0.0000000
      0.0000000	      0.0000000	      0.0000000
      0.0000000	      0.0000000	      0.0000000
      0.0000000	      0.0000000	      0.0000000
      0.0000000	      0.0000000	      0.0000000
      0.0000000	      0.0000000	      0.0000000
      0.0000000	      0.0000000	      0.0000000
      0.0000000	      0.0000000	      0.0000000
      0.0000000	      0.0000000	      0.0000000
      0.0000000	      0.0000000	      0.0000000
      0.0000000	      0.0000000	      0.0000000
      0.0000000	      0.0000000	      0.0000000
      0.0000000	      0.0000000	      0.0000000
      0.0000000	      0.0000000	      0.0000000
      0.0000000	      0.0000000	      0.0000000
      0.0000000	      0.0000000	      0.0000000
      0.0000000	      0.0000000	      0.0000000
      0.0000000	      0.0000000	      0.0000000
      0.0000000	      0.0000000	      0.0000000
      0.0000000	      0.0000000	      0.0000000
      0.0000000	      0.0000000	      0.0000000
      0.0000000	      0.0000000	      0.0000000
      0.0000000	      0.0000000	      0.0000000
      0.0000000	      0.0000000	      0.0000000
      0.0000000	      0.0000000	      0.0000000
      0.0000000	      0.0000000	      0.0000000
      0.0000000	      0.0000000	      0.0000000
      0.0000000	      0.0000000	      0.0000000
      0.0000000	      0.0000000	      0.0000000
      0.0000000	      0.0000000	      0.0000000
      0.0000000	      0.0000000	      0.0000000
      0.0000000	      0.0000000	      0.0000000
      0.0000000	      0.0000000	      0.0000000
      0.0000000	      0.0000000	      0.0000000
      0.0000000	      0.0000000	      0.0000000
      0.0000000	      0.0000000	      0.0000000
      0.0000000	      0.0000000	      0.0000000
      0.0000000	      0.0000000	      0.0000000
      0.0000000	      0.0000000	      0.0000000
      0.0000000	      0.0000000	      0.0000000
      0.0000000	      0.0000000	      0.0000000
      0.0000000	      0.0000000	      0.0000000
      0.0000000	      0.0000000	      0.0000000
      0.0000000	      0.0000000	      0.0000000
      0.0000000	      0.0000000	      0.0000000
      0.0000000	      0.0000000	      0.0000000
      0.0000000	      0.0000000	      0.0000000
      0.0000000	      0.0000000	      0.0000000
      0.0000000	      0.0000000	      0.0000000
      0.0000000	      0.0000000	      0.0000000
      0.0000000	      0.0000000	      0.0000000
      0.0000000	      0.0000000	      0.0000000
      0.0000000	      0.0000000	      0.0000000
      0.0000000	      0.0000000	      0.0000000
      0.0000000	      0.0000000	      0.0000000
      0.0000000	      0.0000000	      0.0000000
      0.0000000	      0.0000000	      0.0000000
      0.0000000	      0.0000000	      0.0000000
      0.0000000	      0.0000000	      0.0000000
      0.0000000	      0.0000000	      0.0000000
      0.0000000	      0.0000000	      0.0000000
      0.0000000	      0.0000000	      0.0000000
      0.0000000	      0.0000000	      0.0000000
      0.0000000	      0.0000000	      0.0000000
      0.0000000	      0.0000000	      0.0000000
      0.0000000	      0.0000000	      0.0000000
      0.0000000	      0.0000000	      0.0000000
      0.0000000	      0.0000000	      0.0000000
      0.0000000	      0.0000000	      0.0000000
      0.0000000	      0.0000000	      0.0000000
      0.0000000	      0.0000000	      0.0000000
      0.0000000	      0.0000000	      0.0000000
      0.0000000	      0.0000000	      0.0000000
      0.0000000	      0.0000000	      0.0000000
      0.0000000	      0.0000000	      0.0000000
      0.0000000	      0.0000000	      0.0000000
      0.0000000	      0.0000000	      0.0000000
      0.0000000	      0.0000000	      0.0000000
      0.0000000	      0.0000000	      0.0000000
      0.0000000	      0.0000000	      0.0000000
      0.0000000	      0.0000000	      0.0000000
      0.0000000	      0.0000000	      0.0000000
      0.0000000	      0.0000000	      0.0000000
      0.0000000	      0.0000000	      0.0000000
      0.0000000	      0.0000000	      0.0000000
      0.0000000	      0.0000000	      0.0000000
      0.0000000	      0.0000000	      0.0000000
      0.0000000	      0.0000000	      0.0000000
      0.0000000	      0.0000000	      0.0000000
      0.0000000	      0.0000000	      0.0000000
      0.0000000	      0.0000000	      0.0000000
      0.0000000	      0.0000000	      0.0000000
      0.0000000	      0.0000000	      0.0000000
      0.0000000	      0.0000000	      0.0000000
      0.0000000	      0.0000000	      0.0000000
      0.0000000	      0.0000000	      0.0000000
      0.0000000	      0.0000000	      0.0000000
      0.0000000	      0.0000000	      0.0000000
      0.0000000	      0.0000000	      0.0000000
      0.0000000	      0.0000000	      0.0000000
      0.0000000	      0.0000000	      0.0000000
     -0.0122715	     -0.0150899	      0.0000000
     -0.0114815	     -0.0212644	      0.0000000
     -0.0019567	     -0.0244049	      0.0000000
      0.0086764	     -0.0257138	      0.0000000
      0.0213670	     -0.0258336	      0.0000000
      0.0333797	     -0.0251562	      0.0000000
      0.0444039	     -0.0239148	      0.0000000
      0.0534327	     -0.0223563	      0.0000000
      0.0602749	     -0.0206633	      0.0000000
      0.0647260	     -0.0189955	      0.0000000
      0.0669029	     -0.0174576	      0.0000000
      0.0669809	     -0.0161120	      0.0000000
      0.0652327	     -0.0149759	      0.0000000
      0.0619245	     -0.0140336	      0.0000000
      0.0572996	     -0.0132461	      0.0000000
      0.0515430	     -0.0125635	      0.0000000
      0.0447789	     -0.0119333	      0.0000000
      0.0370666	     -0.0113099	      0.0000000
      0.0284110	     -0.0106602	      0.0000000
      0.0187773	     -0.0099638	      0.0000000
      0.0081080	     -0.0092093	      0.0000000
     -0.0036638	     -0.0083922	      0.0000000
     -0.0166066	     -0.0075132	      0.0000000
     -0.0307753	     -0.0065793	      0.0000000
     -0.0462098	     -0.0056026	      0.0000000
     -0.0629323	     -0.0045947	      0.0000000
     -0.0809478	     -0.0035675	      0.0000000
     -0.1002421	     -0.0025330	      0.0000000
     -0.1207836	     -0.0015034	      0.0000000
     -0.1425190	     -0.0004894	      0.0000000
     -0.1653824	      0.0004951	      0.0000000
     -0.1892762	      0.0014280	      0.0000000
     -0.2140918	      0.0022968	      0.0000000
     -0.2397004	      0.0030879	      0.0000000
     -0.2659581	      0.0037881	      0.0000000
     -0.2927048	      0.0043837	      0.0000000
     -0.3197661	      0.0048611	      0.0000000
     -0.3469541	      0.0052075	      0.0000000
     -0.3740691	      0.0054104	      0.0000000
     -0.4009009	      0.0054583	      0.0000000
     -0.4272309	      0.0053407	      0.0000000
     -0.4528334	      0.0050483	      0.0000000
     -0.4774777	      0.0045733	      0.0000000
     -0.5009299	      0.0039088	      0.0000000
     -0.5229546	      0.0030500	      0.0000000
     -0.5433172	      0.0019934	      0.0000000
     -0.5617847	      0.0007384	      0.0000000
     -0.5781331	     -0.0007109	      0.0000000
     -0.5921355	     -0.0023415	      0.0000000
     -0.6035953	     -0.0041401	      0.0000000
     -0.6123042	     -0.0061450	      0.0000000
     -0.6180343	     -0.0083873	      0.0000000
     -0.6205576	     -0.0108390	      0.0000000
     -0.6196915	     -0.0134686	      0.0000000
     -0.6152872	     -0.0162448	      0.0000000
     -0.6072327	     -0.0191369	      0.0000000
     -0.5954508	     -0.0221127	      0.0000000
     -0.5799021	     -0.0251376	      0.0000000
     -0.5605874	     -0.0281739	      0.0000000
     -0.5375501	     -0.0311802	      0.0000000
     -0.5108807	     -0.0341116	      0.0000000
     -0.4807189	     -0.0369204	      0.0000000
     -0.4472576	     -0.0395556	      0.0000000
     -0.4107453	     -0.0419647	      0.0000000
     -0.3714876	     -0.0440939	      0.0000000
     -0.3298489	     -0.0458899	      0.0000000
     -0.2862517	     -0.0473012	      0.0000000
     -0.2411751	     -0.0482796	      0.0000000
     -0.1951512	     -0.0487828	      0.0000000
     -0.1487594	     -0.0487762	      0.0000000
     -0.1026186	     -0.0482356	      0.0000000
     -0.0573762	     -0.0471507	      0.0000000
     -0.0136922	     -0.0455254	      0.0000000
      0.0277734	     -0.0433939	      0.0000000
      0.0663919	     -0.0408033	      0.0000000
      0.1015897	     -0.0377932	      0.0000000
      0.1328510	     -0.0344415	      0.0000000
      0.1597467	     -0.0308366	      0.0000000
      0.1819552	     -0.0270785	      0.0000000
      0.1992737	     -0.0232757	      0.0000000
      0.2116315	     -0.0195386	      0.0000000
      0.2190953	     -0.0159738	      0.0000000
      0.2218653	     -0.0126799	      0.0000000
      0.2202724	     -0.0097438	      0.0000000
      0.2147585	     -0.0072323	      0.0000000
      0.2058655	     -0.0051914	      0.0000000
      0.1941755	     -0.0035959	      0.0000000
      0.1802472	     -0.0023921	      0.0000000
      0.1646182	     -0.0015597	      0.0000000
      0.1478107	     -0.0010657	      0.0000000
      0.1302995	     -0.0008718	      0.0000000
      0.1125223	     -0.0009402	      0.0000000
      0.0948635	     -0.0012415	      0.0000000
      0.0776966	     -0.0017713	      0.0000000
      0.0613645	     -0.0025451	      0.0000000
      0.0462836	     -0.0036290	      0.0000000
      0.0328536	     -0.0050405	      0.0000000
      0.0215651	     -0.0068091	      0.0000000
      0.0127746	     -0.0082755	      0.0000000
      0.0058909	     -0.0083414	      0.0000000
      0.0000000	      0.0000000	      0.0000000
      0.0000000	      0.0000000	      0.0000000
     -0.0125560	     -0.0244950	      0.0000000
     -0.0100780	     -0.0385934	      0.0000000
      0.0030148	     -0.0469791	      0.0000000
      0.0188500	     -0.0510730	      0.0000000
      0.0376744	     -0.0519383	      0.0000000
      0.0558425	     -0.0504214	      0.0000000
      0.0724889	     -0.0472007	      0.0000000
      0.0860861	     -0.0429333	      0.0000000
      0.0961571	     -0.0381596	      0.0000000
      0.1023097	     -0.0333287	      0.0000000
      0.1046046	     -0.0287564	      0.0000000
      0.1032319	     -0.0246361	      0.0000000
      0.0985370	     -0.0210425	      0.0000000
      0.0908808	     -0.0179563	      0.0000000
      0.0806060	     -0.0152899	      0.0000000
      0.0679856	     -0.0129263	      0.0000000
      0.0532100	     -0.0107379	      0.0000000
      0.0363824	     -0.0086038	      0.0000000
      0.0175302	     -0.0064275	      0.0000000
     -0.0033728	     -0.0041449	      0.0000000
     -0.0263912	     -0.0017244	      0.0000000
     -0.0515959	      0.0008454	      0.0000000
     -0.0790540	      0.0035520	      0.0000000
     -0.1088019	      0.0063650	      0.0000000
     -0.1408566	      0.0092514	      0.0000000
     -0.1752018	      0.0121748	      0.0000000
     -0.2117886	      0.0150969	      0.0000000
     -0.2505325	      0.0179785	      0.0000000
     -0.2913143	      0.0207794	      0.0000000
     -0.3339792	      0.0234593	      0.0000000
     -0.3783376	      0.0259728	      0.0000000
     -0.4241695	      0.0282752	      0.0000000
     -0.4712268	      0.0303281	      0.0000000
     -0.5192317	      0.0320934	      0.0000000
     -0.5678819	      0.0335348	      0.0000000
     -0.6168524	      0.0346174	      0.0000000
     -0.6657994	      0.0353085	      0.0000000
     -0.7143632	      0.0355781	      0.0000000
     -0.7621715	      0.0353994	      0.0000000
     -0.8088435	      0.0347490	      0.0000000
     -0.8539926	      0.0336073	      0.0000000
     -0.8972305	      0.0319586	      0.0000000
     -0.9381697	      0.0297914	      0.0000000
     -0.9764274	      0.0270984	      0.0000000
     -1.0116282	      0.0238769	      0.0000000
     -1.0434073	      0.0201283	      0.0000000
     -1.0714116	      0.0158595	      0.0000000
     -1.0953061	      0.0110832	      0.0000000
     -1.1147602	      0.0058201	      0.0000000
     -1.1294758	      0.0000907	      0.0000000
     -1.1391119	     -0.0061288	      0.0000000
     -1.1434324	     -0.0128599	      0.0000000
     -1.1421922	     -0.0200483	      0.0000000
     -1.1352150	     -0.0276105	      0.0000000
     -1.1223694	     -0.0354678	      0.0000000
     -1.1035750	     -0.0435400	      0.0000000
     -1.0788020	     -0.0517443	      0.0000000
     -1.0480735	     -0.0599925	      0.0000000
     -1.0114682	     -0.0681902	      0.0000000
     -0.9691231	     -0.0762357	      0.0000000
     -0.9212367	     -0.0840208	      0.0000000
     -0.8680721	     -0.0914304	      0.0000000
     -0.8099598	     -0.0983442	      0.0000000
     -0.7473009	     -0.1046378	      0.0000000
     -0.6805686	     -0.1101848	      0.0000000
     -0.6103096	     -0.1148590	      0.0000000
     -0.5371443	     -0.1185380	      0.0000000
     -0.4617654	     -0.1211063	      0.0000000
     -0.3849347	     -0.1224598	      0.0000000
     -0.3074780	     -0.1225106	      0.0000000
     -0.2302777	     -0.1211919	      0.0000000
     -0.1542606	     -0.1184651	      0.0000000
     -0.0803890	     -0.1143255	      0.0000000
     -0.0096274	     -0.1088133	      0.0000000
      0.0570309	     -0.1020230	      0.0000000
      0.1186880	     -0.0940882	      0.0000000
      0.1745086	     -0.0851610	      0.0000000
      0.2237632	     -0.0754535	      0.0000000
      0.2658492	     -0.0652071	      0.0000000
      0.3003170	     -0.0546874	      0.0000000
      0.3268956	     -0.0441787	      0.0000000
      0.3455100	     -0.0339650	      0.0000000
      0.3562843	     -0.0243207	      0.0000000
      0.3595506	     -0.0154977	      0.0000000
      0.3558255	     -0.0077101	      0.0000000
      0.3458204	     -0.0011060	      0.0000000
      0.3303419	      0.0043013	      0.0000000
      0.3103125	      0.0085585	      0.0000000
      0.2866255	      0.0116991	      0.0000000
      0.2601786	      0.0137947	      0.0000000
      0.2318172	      0.0149346	      0.0000000
      0.2023444	      0.0152115	      0.0000000
      0.1724929	      0.0147027	      0.0000000
      0.1429743	      0.0134387	      0.0000000
      0.1144333	      0.0114085	      0.0000000
      0.0875946	      0.0085160	      0.0000000
      0.0630572	      0.0047534	      0.0000000
      0.0416599	      0.0001172	      0.0000000
      0.0237057	     -0.0043404	      0.0000000
      0.0100268	     -0.0071371	      0.0000000
      0.0000000	      0.0000000	      0.0000000
      0.0000000	      0.0000000	      0.0000000
     -0.0112642	     -0.0328506	      0.0000000
     -0.0070004	     -0.0563689	      0.0000000
      0.0083798	     -0.0714241	      0.0000000
      0.0269038	     -0.0792459	      0.0000000
      0.0485199	     -0.0811516	      0.0000000
      0.0692378	     -0.0784809	      0.0000000
      0.0878937	     -0.0724923	      0.0000000
      0.1027044	     -0.0643746	      0.0000000
      0.1130131	     -0.0551541	      0.0000000
      0.1182990	     -0.0456708	      0.0000000
      0.1185495	     -0.0365350	      0.0000000
      0.1139173	     -0.0281300	      0.0000000
      0.1047388	     -0.0206236	      0.0000000
      0.0913832	     -0.0140071	      0.0000000
      0.0742061	     -0.0081502	      0.0000000
      0.0535018	     -0.0028518	      0.0000000
      0.0294792	      0.0021123	      0.0000000
      0.0022751	      0.0069494	      0.0000000
     -0.0280516	      0.0118185	      0.0000000
     -0.0614797	      0.0168302	      0.0000000
     -0.0980295	      0.0220411	      0.0000000
     -0.1377230	      0.0274590	      0.0000000
     -0.1805685	      0.0330511	      0.0000000
     -0.2265450	      0.0387611	      0.0000000
     -0.2755946	      0.0445211	      0.0000000
     -0.3276129	      0.0502539	      0.0000000
     -0.3824489	      0.0558782	      0.0000000
     -0.4399032	      0.0613108	      0.0000000
     -0.4997300	      0.0664681	      0.0000000
     -0.5616387	      0.0712673	      0.0000000
     -0.6252971	      0.0756257	      0.0000000
     -0.6903383	      0.0794627	      0.0000000
     -0.7563623	      0.0827047	      0.0000000
     -0.8229395	      0.0852825	      0.0000000
     -0.8896169	      0.0871327	      0.0000000
     -0.9559227	      0.0881976	      0.0000000
     -1.0213716	      0.0884261	      0.0000000
     -1.0854707	      0.0877744	      0.0000000
     -1.1477237	      0.0862060	      0.0000000
     -1.2076366	      0.0836925	      0.0000000
     -1.2647216	      0.0802136	      0.0000000
     -1.3185019	      0.0757569	      0.0000000
     -1.3685148	      0.0703182	      0.0000000
     -1.4143158	      0.0639011	      0.0000000
     -1.4554810	      0.0565169	      0.0000000
     -1.4916101	      0.0481845	      0.0000000
     -1.5223269	      0.0389299	      0.0000000
     -1.5472835	      0.0287845	      0.0000000
     -1.5661492	      0.0177846	      0.0000000
     -1.5786386	      0.0059635	      0.0000000
     -1.5844494	     -0.0066748	      0.0000000
     -1.5833529	     -0.0200823	      0.0000000
     -1.5752424	     -0.0341343	      0.0000000
     -1.5600254	     -0.0486960	      0.0000000
     -1.5376639	     -0.0636339	      0.0000000
     -1.5081634	     -0.0788120	      0.0000000
     -1.4715778	     -0.0940890	      0.0000000
     -1.4280112	     -0.1093158	      0.0000000
     -1.3776202	     -0.1243345	      0.0000000
     -1.3206163	     -0.1389771	      0.0000000
     -1.2572688	     -0.1530658	      0.0000000
     -1.1879073	     -0.1664136	      0.0000000
     -1.1129250	     -0.1788252	      0.0000000
     -1.0327814	     -0.1900993	      0.0000000
     -0.9480049	     -0.2000307	      0.0000000
     -0.8591947	     -0.2084143	      0.0000000
     -0.7670226	     -0.2150489	      0.0000000
     -0.6722327	     -0.2197426	      0.0000000
     -0.5756407	     -0.2223190	      0.0000000
     -0.4781308	     -0.2226239	      0.0000000
     -0.3806510	     -0.2205335	      0.0000000
     -0.2842060	     -0.2159629	      0.0000000
     -0.1898457	     -0.2088773	      0.0000000
     -0.0986584	     -0.1993003	      0.0000000
     -0.0117332	     -0.1873428	      0.0000000
      0.0697895	     -0.1731940	      0.0000000
      0.1449004	     -0.1571355	      0.0000000
      0.2126463	     -0.1394849	      0.0000000
      0.2722056	     -0.1206284	      0.0000000
      0.3228913	     -0.1010151	      0.0000000
      0.3641926	     -0.0811342	      0.0000000
      0.3958051	     -0.0614919	      0.0000000
      0.4176416	     -0.0425951	      0.0000000
      0.4298523	     -0.0249284	      0.0000000
      0.4328232	     -0.0089257	      0.0000000
      0.4271665	      0.0050526	      0.0000000
      0.4137364	      0.0168303	      0.0000000
      0.3936183	      0.0263958	      0.0000000
      0.3678745	      0.0337741	      0.0000000
      0.3376290	      0.0390566	      0.0000000
      0.3039777	      0.0423771	      0.0000000
      0.2679956	      0.0438843	      0.0000000
      0.2306933	      0.0437121	      0.0000000
      0.1930640	      0.0419346	      0.0000000
      0.1560077	      0.0385652	      0.0000000
      0.1205214	      0.0335120	      0.0000000
      0.0873896	      0.0267737	      0.0000000
      0.0578471	      0.0183755	      0.0000000
      0.0323256	      0.0093826	      0.0000000
      0.0131117	      0.0012151	      0.0000000
      0.0000000	      0.0000000	      0.0000000
      0.0000000	      0.0000000	      0.0000000
     -0.0097914	     -0.0443319	      0.0000000
     -0.0040596	     -0.0770728	      0.0000000
      0.0125368	     -0.0984720	      0.0000000
      0.0318355	     -0.1096847	      0.0000000
      0.0537498	     -0.1122427	      0.0000000
      0.0742075	     -0.1079421	      0.0000000
      0.0919685	     -0.0985946	      0.0000000
      0.1051706	     -0.0859316	      0.0000000
      0.1130909	     -0.0714741	      0.0000000
      0.1151460	     -0.0564687	      0.0000000
      0.1112680	     -0.0418326	      0.0000000
      0.1015559	     -0.0281486	      0.0000000
      0.0862962	     -0.0156898	      0.0000000
      0.0658039	     -0.0044672	      0.0000000
      0.0403881	      0.0056949	      0.0000000
      0.0103561	      0.0150524	      0.0000000
     -0.0240573	      0.0238909	      0.0000000
     -0.0626772	      0.0324835	      0.0000000
     -0.1053926	      0.0410491	      0.0000000
     -0.1521368	      0.0497340	      0.0000000
     -0.2028571	      0.0586104	      0.0000000
     -0.2574911	      0.0676776	      0.0000000
     -0.3159490	      0.0768780	      0.0000000
     -0.3781006	      0.0861156	      0.0000000
     -0.4437656	      0.0952727	      0.0000000
     -0.5127084	      0.1042198	      0.0000000
     -0.5846383	      0.1128218	      0.0000000
     -0.6592107	      0.1209433	      0.0000000
     -0.7360308	      0.1284509	      0.0000000
     -0.8146582	      0.1352156	      0.0000000
     -0.8946130	      0.1411138	      0.0000000
     -0.9753830	      0.1460302	      0.0000000
     -1.0564299	      0.1498603	      0.0000000
     -1.1371950	      0.1525101	      0.0000000
     -1.2171070	      0.1538974	      0.0000000
     -1.2955888	      0.1539520	      0.0000000
     -1.3720644	      0.1526166	      0.0000000
     -1.4459651	      0.1498469	      0.0000000
     -1.5167355	      0.1456117	      0.0000000
     -1.5838385	      0.1398930	      0.0000000
     -1.6467600	      0.1326856	      0.0000000
     -1.7050128	      0.1239964	      0.0000000
     -1.7581395	      0.1138441	      0.0000000
     -1.8057150	      0.1022583	      0.0000000
     -1.8473484	      0.0892787	      0.0000000
     -1.8826838	      0.0749539	      0.0000000
     -1.9114009	      0.0593411	      0.0000000
     -1.9332162	      0.0425028	      0.0000000
     -1.9478739	      0.0245077	      0.0000000
     -1.9551845	      0.0054229	      0.0000000
     -1.9549124	     -0.0147074	      0.0000000
     -1.9470067	     -0.0357357	      0.0000000
     -1.9314539	     -0.0574596	      0.0000000
     -1.9082659	     -0.0797136	      0.0000000
     -1.8774884	     -0.1023218	      0.0000000
     -1.8392006	     -0.1251048	      0.0000000
     -1.7935175	     -0.1478743	      0.0000000
     -1.7405931	     -0.1704318	      0.0000000
     -1.6806222	     -0.1925673	      0.0000000
     -1.6138435	     -0.2140582	      0.0000000
     -1.5405426	     -0.2346691	      0.0000000
     -1.4610554	     -0.2541524	      0.0000000
     -1.3757717	     -0.2722491	      0.0000000
     -1.2851387	     -0.2886913	      0.0000000
     -1.1896650	     -0.3032048	      0.0000000
     -1.0899237	     -0.3155134	      0.0000000
     -0.9865550	     -0.3253438	      0.0000000
     -0.8802688	     -0.3324321	      0.0000000
     -0.7718450	     -0.3365311	      0.0000000
     -0.6621333	     -0.3374193	      0.0000000
     -0.5520509	     -0.3349105	      0.0000000
     -0.4425778	     -0.3288658	      0.0000000
     -0.3347510	     -0.3192049	      0.0000000
     -0.2296526	     -0.3059221	      0.0000000
     -0.1284056	     -0.2890975	      0.0000000
     -0.0321410	     -0.2689412	      0.0000000
      0.0579581	     -0.2457697	      0.0000000
      0.1408059	     -0.2200347	      0.0000000
      0.2154059	     -0.1922504	      0.0000000
      0.2808783	     -0.1629940	      0.0000000
      0.3364985	     -0.1329503	      0.0000000
      0.3817232	     -0.1028343	      0.0000000
      0.4162136	     -0.0733825	      0.0000000
      0.4398734	     -0.0453259	      0.0000000
      0.4528435	     -0.0193425	      0.0000000
      0.4555462	      0.0039357	      0.0000000
      0.4486158	      0.0240445	      0.0000000
      0.4331568	      0.0408267	      0.0000000
      0.4102544	      0.0542550	      0.0000000
      0.3811209	      0.0643869	      0.0000000
      0.3469863	      0.0713623	      0.0000000
      0.3090979	      0.0753589	      0.0000000
      0.2686634	      0.0765527	      0.0000000
      0.2268948	      0.0750608	      0.0000000
      0.1849028	      0.0709251	      0.0000000
      0.1439282	      0.0640637	      0.0000000
      0.1049472	      0.0544360	      0.0000000
      0.0695979	      0.0419966	      0.0000000
      0.0385468	      0.0275084	      0.0000000
      0.0152849	      0.0120196	      0.0000000
      0.0000000	      0.0000000	      0.0000000
      0.0000000	      0.0000000	      0.0000000
     -0.0088917	     -0.0563671	      0.0000000
     -0.0024498	     -0.0981158	      0.0000000
      0.0143013	     -0.1253771	      0.0000000
      0.0329044	     -0.1393460	      0.0000000
      0.0532733	     -0.1418727	      0.0000000
      0.0713554	     -0.1352253	      0.0000000
      0.0859601	     -0.1217777	      0.0000000
      0.0952650	     -0.1038053	      0.0000000
      0.0985752	     -0.0833196	      0.0000000
      0.0953107	     -0.0619668	      0.0000000
      0.0853868	     -0.0409618	      0.0000000
      0.0688563	     -0.0210835	      0.0000000
      0.0459396	     -0.0026929	      0.0000000
      0.0168642	      0.0141905	      0.0000000
     -0.0180221	      0.0296994	      0.0000000
     -0.0584199	      0.0441152	      0.0000000
     -0.1040642	      0.0577958	      0.0000000
     -0.1547632	      0.0710759	      0.0000000
     -0.2103585	      0.0842202	      0.0000000
     -0.2707103	      0.0973953	      0.0000000
     -0.3356673	      0.1106647	      0.0000000
     -0.4050483	      0.1239996	      0.0000000
     -0.4786283	      0.1373003	      0.0000000
     -0.5561306	      0.1504196	      0.0000000
     -0.6372213	      0.1631831	      0.0000000
     -0.7215085	      0.1754027	      0.0000000
     -0.8085447	      0.1868868	      0.0000000
     -0.8978311	      0.1974467	      0.0000000
     -0.9888244	      0.2069014	      0.0000000
     -1.0809442	      0.2150807	      0.0000000
     -1.1735813	      0.2218277	      0.0000000
     -1.2661071	      0.2270012	      0.0000000
     -1.3578817	      0.2304780	      0.0000000
     -1.4482624	      0.2321536	      0.0000000
     -1.5366119	      0.2319427	      0.0000000
     -1.6223059	      0.2297797	      0.0000000
     -1.7047408	      0.2256188	      0.0000000
     -1.7833390	      0.2194334	      0.0000000
     -1.8575550	      0.2112157	      0.0000000
     -1.9268791	      0.2009756	      0.0000000
     -1.9908406	      0.1887398	      0.0000000
     -2.0490102	      0.1745501	      0.0000000
     -2.1010016	      0.1584622	      0.0000000
     -2.1464714	      0.1405445	      0.0000000
     -2.1851198	      0.1208760	      0.0000000
     -2.2166889	      0.0995450	      0.0000000
     -2.2409623	      0.0766477	      0.0000000
     -2.2577638	      0.0522853	      0.0000000
     -2.2669512	      0.0265666	      0.0000000
     -2.2684553	     -0.0004151	      0.0000000
     -2.2621168	     -0.0285328	      0.0000000
     -2.2480849	     -0.0575416	      0.0000000
     -2.2263727	     -0.0872213	      0.0000000
     -2.1970629	     -0.1173791	      0.0000000
     -2.1602414	     -0.1478119	      0.0000000
     -2.1160197	     -0.1783087	      0.0000000
     -2.0645309	     -0.2086474	      0.0000000
     -2.0059347	     -0.2385924	      0.0000000
     -1.9404196	     -0.2678936	      0.0000000
     -1.8682071	     -0.2962848	      0.0000000
     -1.7895550	     -0.3234832	      0.0000000
     -1.7047622	     -0.3491899	      0.0000000
     -1.6141729	     -0.3730906	      0.0000000
     -1.5181814	     -0.3948578	      0.0000000
     -1.4172371	     -0.4141541	      0.0000000
     -1.3118488	     -0.4306366	      0.0000000
     -1.2025891	     -0.4439625	      0.0000000
     -1.0900976	     -0.4537969	      0.0000000
     -0.9750838	     -0.4598212	      0.0000000
     -0.8583277	     -0.4617436	      0.0000000
     -0.7406803	     -0.4593110	      0.0000000
     -0.6230604	     -0.4523222	      0.0000000
     -0.5064503	     -0.4406433	      0.0000000
     -0.3918896	     -0.4242228	      0.0000000
     -0.2804643	     -0.4031128	      0.0000000
     -0.1732993	     -0.3774825	      0.0000000
     -0.0715497	     -0.3476638	      0.0000000
      0.0236167	     -0.3141321	      0.0000000
      0.1110160	     -0.2775064	      0.0000000
      0.1896554	     -0.2385419	      0.0000000
      0.2586069	     -0.1980538	      0.0000000
      0.3171335	     -0.1569418	      0.0000000
      0.3646632	     -0.1161662	      0.0000000
      0.4008541	     -0.0766986	      0.0000000
      0.4255871	     -0.0394776	      0.0000000
      0.4390561	     -0.0053918	      0.0000000
      0.4415955	      0.0247211	      0.0000000
      0.4341184	      0.0504294	      0.0000000
      0.4176627	      0.0716084	      0.0000000
      0.3934080	      0.0882292	      0.0000000
      0.3626180	      0.1003910	      0.0000000
      0.3266176	      0.1082624	      0.0000000
      0.2867311	      0.1120320	      0.0000000
      0.2443234	      0.1118404	      0.0000000
      0.2006730	      0.1077418	      0.0000000
      0.1572342	      0.0996475	      0.0000000
      0.1151812	      0.0874250	      0.0000000
      0.0765172	      0.0708716	      0.0000000
      0.0421711	      0.0502350	      0.0000000
      0.0164973	      0.0259218	      0.0000000
      0.0000000	      0.0000000	      0.0000000
      0.0000000	      0.0000000	      0.0000000
     -0.0085494	     -0.0692224	      0.0000000
     -0.0022100	     -0.1194653	      0.0000000
      0.0135720	     -0.1516807	      0.0000000
      0.0300895	     -0.1673691	      0.0000000
      0.0472743	     -0.1688728	      0.0000000
      0.0611616	     -0.1589817	      0.0000000
      0.0706881	     -0.1406409	      0.0000000