# vtk DataFile Version 2.0
vw
ASCII
DATASET STRUCTURED_POINTS
DIMENSIONS  102  102    1
ORIGIN      0.0000000      0.0000000      0.0000000
SPACING      0.0100000      0.0100000      0.0100000
POINT_DATA  10404
VECTORS velocity float
      0.0000000	      0.0000000	      0.0000000
      0.0000000	      0.0000000	      0.0000000
      0.0000000	      0.0000000	      0.0000000
      0.0000000	      0.0000000	      0.0000000
      0.0000000	      0.0000000	      0.0000000
      0.0000000	      0.0000000	      0.0000000
      0.0000000	      0.0000000	      0.0000000
      0.0000000	      0.0000000	      0.0000000
      0.0000000	      0.0000000	      0.0000000
      0.0000000	      0.0000000	      0.0000000
      0.0000000	      0.0000000	      0.0000000
      0.0000000	      0.0000000	      0.0000000
      0.0000000	      0.0000000	      0.0000000
      0.0000000	      0.0000000	      0.0000000
      0.0000000	      0.0000000	      0.0000000
      0.0000000	      0.0000000	      0.0000000
      0.0000000	      0.0000000	      0.0000000
      0.0000000	      0.0000000	      0.0000000
      0.0000000	      0.0000000	      0.0000000
      0.0000000	      0.0000000	      0.0000000
      0.0000000	      0.0000000	      0.0000000
      0.0000000	      0.0000000	      0.0000000
      0.0000000	      0.0000000	      0.0000000
      0.0000000	      0.0000000	      0.0000000
      0.0000000	      0.0000000	      0.0000000
      0.0000000	      0.0000000	      0.0000000
      0.0000000	      0.0000000	      0.0000000
      0.0000000	      0.0000000	      0.0000000
      0.0000000	      0.0000000	      0.0000000
      0.0000000	      0.0000000	      0.0000000
      0.0000000	      0.0000000	      0.0000000
      0.0000000	      0.0000000	      0.0000000
      0.0000000	      0.0000000	      0.0000000
      0.0000000	      0.0000000	      0.0000000
      0.0000000	      0.0000000	      0.0000000
      0.0000000	      0.0000000	      0.0000000
      0.0000000	      0.0000000	      0.0000000
      0.0000000	      0.0000000	      0.0000000
      0.0000000	      0.0000000	      0.0000000
      0.0000000	      0.0000000	      0.0000000
      0.0000000	      0.0000000	      0.0000000
      0.0000000	      0.0000000	      0.0000000
      0.0000000	      0.0000000	      0.0000000
      0.0000000	      0.0000000	      0.0000000
      0.0000000	      0.0000000	      0.0000000
      0.0000000	      0.0000000	      0.0000000
      0.0000000	      0.0000000	      0.0000000
      0.0000000	      0.0000000	      0.0000000
      0.0000000	      0.0000000	      0.0000000
      0.0000000	      0.0000000	      0.0000000
      0.0000000	      0.0000000	      0.0000000
      0.0000000	      0.0000000	      0.0000000
      0.0000000	      0.0000000	      0.0000000
      0.0000000	      0.0000000	      0.0000000
      0.0000000	      0.0000000	      0.0000000
      0.0000000	      0.0000000	      0.0000000
      0.0000000	      0.0000000	      0.0000000
      0.0000000	      0.0000000	      0.0000000
      0.0000000	      0.0000000	      0.0000000
      0.0000000	      0.0000000	      0.0000000
      0.0000000	      0.0000000	      0.0000000
      0.0000000	      0.0000000	      0.0000000
      0.0000000	      0.0000000	      0.0000000
      0.0000000	      0.0000000	      0.0000000
      0.0000000	      0.0000000	      0.0000000
      0.0000000	      0.0000000	      0.0000000
      0.0000000	      0.0000000	      0.0000000
      0.0000000	      0.0000000	      0.0000000
      0.0000000	      0.0000000	      0.0000000
      0.0000000	      0.0000000	      0.0000000
      0.0000000	      0.0000000	      0.0000000
      0.0000000	      0.0000000	      0.0000000
      0.0000000	      0.0000000	      0.0000000
      0.0000000	      0.0000000	      0.0000000
      0.0000000	      0.0000000	      0.0000000
      0.0000000	      0.0000000	      0.0000000
      0.0000000	      0.0000000	      0.0000000
      0.0000000	      0.0000000	      0.0000000
      0.0000000	      0.0000000	      0.0000000
      0.0000000	      0.0000000	      0.0000000
      0.0000000	      0.0000000	      0.0000000
      0.0000000	      0.0000000	      0.0000000
      0.0000000	      0.0000000	      0.0000000
      0.0000000	      0.0000000	      0.0000000
      0.0000000	      0.0000000	      0.0000000
      0.0000000	      0.0000000	      0.0000000
      0.0000000	      0.0000000	      0.0000000
      0.0000000	      0.0000000	      0.0000000
      0.0000000	      0.0000000	      0.0000000
      0.0000000	      0.0000000	      0.0000000
      0.0000000	      0.0000000	      0.0000000
      0.0000000	      0.0000000	      0.0000000
      0.0000000	      0.0000000	      0.0000000
      0.0000000	      0.0000000	      0.0000000
      0.0000000	      0.0000000	      0.0000000
      0.0000000	      0.0000000	      0.0000000
      0.0000000	      0.0000000	      0.0000000
      0.0000000	      0.0000000	      0.0000000
      0.0000000	      0.0000000	      0.0000000
      0.0000000	      0.0000000	      0.0000000
      0.0000000	      0.0000000	      0.0000000
      0.0000000	      0.0000000	      0.0000000
      0.0000000	      0.0000000	      0.0000000
     -0.0024295	     -0.0030684	      0.0000000
     -0.0023683	     -0.0041629	      0.0000000
     -0.0007509	     -0.0047040	      0.0000000
      0.0008007	     -0.0048464	      0.0000000
      0.0028147	     -0.0048455	      0.0000000
      0.0045472	     -0.0047399	      0.0000000
      0.0062833	     -0.0045850	      0.0000000
      0.0076635	     -0.0043995	      0.0000000
      0.0088495	     -0.0041982	      0.0000000
      0.0096660	     -0.0039912	      0.0000000
      0.0102088	     -0.0037825	      0.0000000
      0.0103936	     -0.0035765	      0.0000000
      0.0102779	     -0.0033735	      0.0000000
      0.0098209	     -0.0031744	      0.0000000
      0.0090556	     -0.0029779	      0.0000000
      0.0079607	     -0.0027835	      0.0000000
      0.0065532	     -0.0025894	      0.0000000
      0.0048198	     -0.0023950	      0.0000000
      0.0027668	     -0.0021989	      0.0000000
      0.0003842	     -0.0020005	      0.0000000
     -0.0023277	     -0.0017989	      0.0000000
     -0.0053774	     -0.0015935	      0.0000000
     -0.0087674	     -0.0013840	      0.0000000
     -0.0125044	     -0.0011706	      0.0000000
     -0.0165910	     -0.0009537	      0.0000000
     -0.0210307	     -0.0007339	      0.0000000
     -0.0258235	     -0.0005124	      0.0000000
     -0.0309680	     -0.0002907	      0.0000000
     -0.0364583	     -0.0000709	      0.0000000
     -0.0422856	      0.0001448	      0.0000000
     -0.0484355	      0.0003531	      0.0000000
     -0.0548887	      0.0005505	      0.0000000
     -0.0616195	      0.0007333	      0.0000000
     -0.0685960	      0.0008973	      0.0000000
     -0.0757795	      0.0010380	      0.0000000
     -0.0831237	      0.0011508	      0.0000000
     -0.0905752	      0.0012307	      0.0000000
     -0.0980730	      0.0012727	      0.0000000
     -0.1055486	      0.0012717	      0.0000000
     -0.1129265	      0.0012230	      0.0000000
     -0.1201244	      0.0011218	      0.0000000
     -0.1270540	      0.0009637	      0.0000000
     -0.1336216	      0.0007448	      0.0000000
     -0.1397294	      0.0004620	      0.0000000
     -0.1452764	      0.0001128	      0.0000000
     -0.1501600	     -0.0003041	      0.0000000
     -0.1542777	     -0.0007888	      0.0000000
     -0.1575293	     -0.0013403	      0.0000000
     -0.1598190	     -0.0019558	      0.0000000
     -0.1610574	     -0.0026306	      0.0000000
     -0.1611653	     -0.0033579	      0.0000000
     -0.1600749	     -0.0041305	      0.0000000
     -0.1577302	     -0.0049397	      0.0000000
     -0.1540904	     -0.0057753	      0.0000000
     -0.1491307	     -0.0066257	      0.0000000
     -0.1428453	     -0.0074775	      0.0000000
     -0.1352485	     -0.0083161	      0.0000000
     -0.1263764	     -0.0091260	      0.0000000
     -0.1162881	     -0.0098909	      0.0000000
     -0.1050656	     -0.0105941	      0.0000000
     -0.0928148	     -0.0112192	      0.0000000
     -0.0796638	     -0.0117503	      0.0000000
     -0.0657627	     -0.0121726	      0.0000000
     -0.0512809	     -0.0124729	      0.0000000
     -0.0364053	     -0.0126404	      0.0000000
     -0.0213362	     -0.0126670	      0.0000000
     -0.0062844	     -0.0125476	      0.0000000
      0.0085347	     -0.0122816	      0.0000000
      0.0229050	     -0.0118725	      0.0000000
      0.0366174	     -0.0113263	      0.0000000
      0.0494739	     -0.0106542	      0.0000000
      0.0612931	     -0.0098709	      0.0000000
      0.0719149	     -0.0089931	      0.0000000
      0.0812063	     -0.0080426	      0.0000000
      0.0890638	     -0.0070416	      0.0000000
      0.0954170	     -0.0060141	      0.0000000
      0.1002297	     -0.0049843	      0.0000000
      0.1035012	     -0.0039764	      0.0000000
      0.1052640	     -0.0030129	      0.0000000
      0.1055849	     -0.0021145	      0.0000000
      0.1045573	     -0.0012990	      0.0000000
      0.1023040	     -0.0005773	      0.0000000
      0.0989555	      0.0000503	      0.0000000
      0.0946523	      0.0005838	      0.0000000
      0.0895299	      0.0010229	      0.0000000
      0.0837366	      0.0013711	      0.0000000
      0.0773966	      0.0016349	      0.0000000
      0.0706541	      0.0018201	      0.0000000
      0.0636093	      0.0019356	      0.0000000
      0.0564012	      0.0019849	      0.0000000
      0.0491013	      0.0019756	      0.0000000
      0.0418579	      0.0019016	      0.0000000
      0.0347217	      0.0017650	      0.0000000
      0.0278821	      0.0015382	      0.0000000
      0.0213918	      0.0012183	      0.0000000
      0.0155183	      0.0007440	      0.0000000
      0.0103484	      0.0001427	      0.0000000
      0.0061943	     -0.0006576	      0.0000000
      0.0031610	     -0.0013677	      0.0000000
      0.0011687	     -0.0017782	      0.0000000
      0.0000000	      0.0000000	      0.0000000
      0.0000000	      0.0000000	      0.0000000
     -0.0026158	     -0.0048602	      0.0000000
     -0.0023653	     -0.0072399	      0.0000000
     -0.0003874	     -0.0085810	      0.0000000
      0.0018137	     -0.0090993	      0.0000000
      0.0046215	     -0.0091958	      0.0000000
      0.0071547	     -0.0089752	      0.0000000
      0.0096377	     -0.0085745	      0.0000000
      0.0116084	     -0.0080490	      0.0000000
      0.0132062	     -0.0074541	      0.0000000
      0.0141999	     -0.0068180	      0.0000000
      0.0146788	     -0.0061636	      0.0000000
      0.0145308	     -0.0055025	      0.0000000
      0.0138122	     -0.0048419	      0.0000000
      0.0124680	     -0.0041842	      0.0000000
      0.0105310	     -0.0035292	      0.0000000
      0.0079713	     -0.0028754	      0.0000000
      0.0048040	     -0.0022204	      0.0000000
      0.0010096	     -0.0015611	      0.0000000
     -0.0034084	     -0.0008954	      0.0000000
     -0.0084648	     -0.0002212	      0.0000000
     -0.0141624	      0.0004629	      0.0000000
     -0.0205132	      0.0011575	      0.0000000
     -0.0275212	      0.0018622	      0.0000000
     -0.0351942	      0.0025759	      0.0000000
     -0.0435335	      0.0032964	      0.0000000
     -0.0525399	      0.0040202	      0.0000000
     -0.0622069	      0.0047428	      0.0000000
     -0.0725240	      0.0054579	      0.0000000
     -0.0834723	      0.0061584	      0.0000000
     -0.0950254	      0.0068352	      0.0000000
     -0.1071469	      0.0074778	      0.0000000
     -0.1197905	      0.0080748	      0.0000000
     -0.1328982	      0.0086136	      0.0000000
     -0.1464004	      0.0090805	      0.0000000
     -0.1602147	      0.0094614	      0.0000000
     -0.1742462	      0.0097412	      0.0000000
     -0.1883868	      0.0099049	      0.0000000
     -0.2025164	      0.0099373	      0.0000000
     -0.2165026	      0.0098238	      0.0000000
     -0.2302020	      0.0095502	      0.0000000
     -0.2434613	      0.0091037	      0.0000000
     -0.2561186	      0.0084726	      0.0000000
     -0.2680056	      0.0076475	      0.0000000
     -0.2789490	      0.0066208	      0.0000000
     -0.2887734	      0.0053879	      0.0000000
     -0.2973036	      0.0039474	      0.0000000
     -0.3043678	      0.0023015	      0.0000000
     -0.3098005	      0.0004571	      0.0000000
     -0.3134462	     -0.0015744	      0.0000000
     -0.3151634	     -0.0037764	      0.0000000
     -0.3148300	     -0.0061269	      0.0000000
     -0.3123452	     -0.0086022	      0.0000000
     -0.3076297	     -0.0111747	      0.0000000
     -0.3006303	     -0.0138128	      0.0000000
     -0.2913212	     -0.0164808	      0.0000000
     -0.2797078	     -0.0191390	      0.0000000
     -0.2658279	     -0.0217447	      0.0000000
     -0.2497543	     -0.0242526	      0.0000000
     -0.2315951	     -0.0266159	      0.0000000
     -0.2114946	     -0.0287873	      0.0000000
     -0.1896330	     -0.0307201	      0.0000000
     -0.1662248	     -0.0323696	      0.0000000
     -0.1415179	     -0.0336939	      0.0000000
     -0.1157896	     -0.0346560	      0.0000000
     -0.0893444	     -0.0352246	      0.0000000
     -0.0625081	     -0.0353759	      0.0000000
     -0.0356238	     -0.0350948	      0.0000000
     -0.0090440	     -0.0343762	      0.0000000
      0.0168744	     -0.0332264	      0.0000000
      0.0417808	     -0.0316646	      0.0000000
      0.0653397	     -0.0297187	      0.0000000
      0.0872409	     -0.0274275	      0.0000000
      0.1072028	     -0.0248400	      0.0000000
      0.1249833	     -0.0220140	      0.0000000
      0.1403856	     -0.0190124	      0.0000000
      0.1532623	     -0.0159043	      0.0000000
      0.1635199	     -0.0127595	      0.0000000
      0.1711212	     -0.0096482	      0.0000000
      0.1760839	     -0.0066379	      0.0000000
      0.1784814	     -0.0037911	      0.0000000
      0.1784354	     -0.0011630	      0.0000000
      0.1761160	      0.0012068	      0.0000000
      0.1717276	      0.0033026	      0.0000000
      0.1655011	      0.0051164	      0.0000000
      0.1576622	      0.0066445	      0.0000000
      0.1484604	      0.0078923	      0.0000000
      0.1381187	      0.0088720	      0.0000000
      0.1268871	      0.0095972	      0.0000000
      0.1149639	      0.0100872	      0.0000000
      0.1025946	      0.0103523	      0.0000000
      0.0899434	      0.0104077	      0.0000000
      0.0772687	      0.0102429	      0.0000000
      0.0647075	      0.0098581	      0.0000000
      0.0525723	      0.0091983	      0.0000000
      0.0409916	      0.0082527	      0.0000000
      0.0303806	      0.0069048	      0.0000000
      0.0208626	      0.0052099	      0.0000000
      0.0129462	      0.0030389	      0.0000000
      0.0066656	      0.0009004	      0.0000000
      0.0024240	     -0.0009815	      0.0000000
      0.0000000	      0.0000000	      0.0000000
      0.0000000	      0.0000000	      0.0000000
     -0.0025513	     -0.0062187	      0.0000000
     -0.0021866	     -0.0101639	      0.0000000
     -0.0000685	     -0.0125223	      0.0000000
      0.0023384	     -0.0135917	      0.0000000
      0.0053599	     -0.0138400	      0.0000000
      0.0080763	     -0.0134648	      0.0000000
      0.0106578	     -0.0127027	      0.0000000
      0.0126019	     -0.0116621	      0.0000000
      0.0140129	     -0.0104594	      0.0000000
      0.0146321	     -0.0091492	      0.0000000
      0.0145280	     -0.0077848	      0.0000000
      0.0135712	     -0.0063886	      0.0000000
      0.0118050	     -0.0049807	      0.0000000
      0.0091627	     -0.0035655	      0.0000000
      0.0056673	     -0.0021471	      0.0000000
      0.0012801	     -0.0007218	      0.0000000
     -0.0039913	      0.0007125	      0.0000000
     -0.0101722	      0.0021599	      0.0000000
     -0.0172633	      0.0036229	      0.0000000
     -0.0252839	      0.0051042	      0.0000000
     -0.0342393	      0.0066050	      0.0000000
     -0.0441435	      0.0081249	      0.0000000
     -0.0550005	      0.0096615	      0.0000000
     -0.0668161	      0.0112108	      0.0000000
     -0.0795870	      0.0127662	      0.0000000
     -0.0933060	      0.0143186	      0.0000000
     -0.1079557	      0.0158561	      0.0000000
     -0.1235106	      0.0173641	      0.0000000
     -0.1399325	      0.0188253	      0.0000000
     -0.1571716	      0.0202195	      0.0000000
     -0.1751637	      0.0215238	      0.0000000
     -0.1938297	      0.0227130	      0.0000000
     -0.2130744	      0.0237601	      0.0000000
     -0.2327864	      0.0246365	      0.0000000
     -0.2528370	      0.0253123	      0.0000000
     -0.2730815	      0.0257574	      0.0000000
     -0.2933583	      0.0259415	      0.0000000
     -0.3134913	      0.0258351	      0.0000000
     -0.3332896	      0.0254102	      0.0000000
     -0.3525507	      0.0246408	      0.0000000
     -0.3710611	      0.0235039	      0.0000000
     -0.3885999	      0.0219798	      0.0000000
     -0.4049405	      0.0200534	      0.0000000
     -0.4198545	      0.0177145	      0.0000000
     -0.4331140	      0.0149587	      0.0000000
     -0.4444959	      0.0117882	      0.0000000
     -0.4537850	      0.0082124	      0.0000000
     -0.4607780	      0.0042492	      0.0000000
     -0.4652874	     -0.0000748	      0.0000000
     -0.4671461	     -0.0047217	      0.0000000
     -0.4662134	     -0.0096438	      0.0000000
     -0.4623781	     -0.0147909	      0.0000000
     -0.4555566	     -0.0201067	      0.0000000
     -0.4456985	     -0.0255275	      0.0000000
     -0.4327880	     -0.0309827	      0.0000000
     -0.4168468	     -0.0363955	      0.0000000
     -0.3979363	     -0.0416838	      0.0000000
     -0.3761585	     -0.0467615	      0.0000000
     -0.3516575	     -0.0515408	      0.0000000
     -0.3246191	     -0.0559331	      0.0000000
     -0.2952704	     -0.0598514	      0.0000000
     -0.2638787	     -0.0632123	      0.0000000
     -0.2307496	     -0.0659382	      0.0000000
     -0.1962238	     -0.0679594	      0.0000000
     -0.1606738	     -0.0692166	      0.0000000
     -0.1244989	     -0.0696632	      0.0000000
     -0.0881204	     -0.0692678	      0.0000000
     -0.0519747	     -0.0680160	      0.0000000
     -0.0165059	     -0.0659136	      0.0000000
      0.0178413	     -0.0629877	      0.0000000
      0.0506330	     -0.0592904	      0.0000000
      0.0814595	     -0.0548910	      0.0000000
      0.1099430	     -0.0498737	      0.0000000
      0.1357500	     -0.0443457	      0.0000000
      0.1585938	     -0.0384236	      0.0000000
      0.1782456	     -0.0322354	      0.0000000
      0.1945408	     -0.0259149	      0.0000000
      0.2073814	     -0.0195981	      0.0000000
      0.2167379	     -0.0134174	      0.0000000
      0.2226511	     -0.0074983	      0.0000000
      0.2252266	     -0.0019537	      0.0000000
      0.2246324	      0.0031202	      0.0000000
      0.2211025	      0.0076658	      0.0000000
      0.2149164	      0.0116584	      0.0000000
      0.2063561	      0.0150830	      0.0000000
      0.1957384	      0.0179406	      0.0000000
      0.1833591	      0.0202449	      0.0000000
      0.1695480	      0.0220157	      0.0000000
      0.1545853	      0.0232811	      0.0000000
      0.1388041	      0.0240592	      0.0000000
      0.1224527	      0.0243708	      0.0000000
      0.1058825	      0.0242030	      0.0000000
      0.0893103	      0.0235488	      0.0000000
      0.0731487	      0.0223307	      0.0000000
      0.0575917	      0.0205191	      0.0000000
      0.0431724	      0.0179605	      0.0000000
      0.0300451	      0.0147122	      0.0000000
      0.0189065	      0.0106356	      0.0000000
      0.0097699	      0.0063134	      0.0000000
      0.0035441	      0.0019925	      0.0000000
      0.0000000	      0.0000000	      0.0000000
      0.0000000	      0.0000000	      0.0000000
     -0.0023673	     -0.0080872	      0.0000000
     -0.0019350	     -0.0134233	      0.0000000
      0.0000996	     -0.0166862	      0.0000000
      0.0023444	     -0.0182142	      0.0000000
      0.0050978	     -0.0185429	      0.0000000
      0.0074707	     -0.0179373	      0.0000000
      0.0095976	     -0.0167187	      0.0000000
      0.0109714	     -0.0150483	      0.0000000
      0.0116666	     -0.0130997	      0.0000000
      0.0114106	     -0.0109579	      0.0000000
      0.0102495	     -0.0087074	      0.0000000
      0.0080391	     -0.0063845	      0.0000000
      0.0048056	     -0.0040228	      0.0000000
      0.0004688	     -0.0016311	      0.0000000
     -0.0049620	      0.0007823	      0.0000000
     -0.0115350	      0.0032199	      0.0000000
     -0.0192501	      0.0056810	      0.0000000
     -0.0281399	      0.0081696	      0.0000000
     -0.0382114	      0.0106872	      0.0000000
     -0.0494884	      0.0132366	      0.0000000
     -0.0619789	      0.0158167	      0.0000000
     -0.0756972	      0.0184245	      0.0000000
     -0.0906454	      0.0210534	      0.0000000
     -0.1068237	      0.0236932	      0.0000000
     -0.1242203	      0.0263298	      0.0000000
     -0.1428157	      0.0289451	      0.0000000
     -0.1625766	      0.0315163	      0.0000000
     -0.1834569	      0.0340164	      0.0000000
     -0.2053943	      0.0364139	      0.0000000
     -0.2283099	      0.0386732	      0.0000000
     -0.2521065	      0.0407549	      0.0000000
     -0.2766680	      0.0426162	      0.0000000
     -0.3018584	      0.0442120	      0.0000000
     -0.3275220	      0.0454953	      0.0000000
     -0.3534834	      0.0464181	      0.0000000
     -0.3795485	      0.0469326	      0.0000000
     -0.4055058	      0.0469920	      0.0000000
     -0.4311278	      0.0465518	      0.0000000
     -0.4561732	      0.0455706	      0.0000000
     -0.4803895	      0.0440117	      0.0000000
     -0.5035161	      0.0418437	      0.0000000
     -0.5252871	      0.0390417	      0.0000000
     -0.5454349	      0.0355885	      0.0000000
     -0.5636940	      0.0314753	      0.0000000
     -0.5798045	      0.0267028	      0.0000000
     -0.5935165	      0.0212822	      0.0000000
     -0.6045928	      0.0152357	      0.0000000
     -0.6128145	      0.0085979	      0.0000000
     -0.6179829	      0.0014167	      0.0000000
     -0.6199261	     -0.0062442	      0.0000000
     -0.6184995	     -0.0143070	      0.0000000
     -0.6135945	     -0.0226903	      0.0000000
     -0.6051328	     -0.0313052	      0.0000000
     -0.5930728	     -0.0400521	      0.0000000
     -0.5774104	     -0.0488226	      0.0000000
     -0.5581821	     -0.0574993	      0.0000000
     -0.5354659	     -0.0659587	      0.0000000
     -0.5093826	     -0.0740722	      0.0000000
     -0.4800968	     -0.0817088	      0.0000000
     -0.4478163	     -0.0887374	      0.0000000
     -0.4127918	     -0.0950293	      0.0000000
     -0.3753160	     -0.1004609	      0.0000000
     -0.3357219	     -0.1049168	      0.0000000
     -0.2943798	     -0.1082926	      0.0000000
     -0.2516949	     -0.1104981	      0.0000000
     -0.2081028	     -0.1114606	      0.0000000
     -0.1640651	     -0.1111281	      0.0000000
     -0.1200631	     -0.1094726	      0.0000000
     -0.0765916	     -0.1064926	      0.0000000
     -0.0341516	     -0.1022183	      0.0000000
      0.0067595	     -0.0967121	      0.0000000
      0.0456526	     -0.0900696	      0.0000000
      0.0820733	     -0.0824178	      0.0000000
      0.1156021	     -0.0739055	      0.0000000
      0.1458730	     -0.0647008	      0.0000000
      0.1725742	     -0.0549966	      0.0000000
      0.1954599	     -0.0449932	      0.0000000
      0.2143566	     -0.0348974	      0.0000000
      0.2291667	     -0.0249154	      0.0000000
      0.2398719	     -0.0152461	      0.0000000
      0.2465282	     -0.0060715	      0.0000000
      0.2492722	      0.0024385	      0.0000000
      0.2483083	      0.0101596	      0.0000000
      0.2439390	      0.0170318	      0.0000000
      0.2364705	      0.0230186	      0.0000000
      0.2262587	      0.0281057	      0.0000000
      0.2136472	      0.0323003	      0.0000000
      0.1990238	      0.0356210	      0.0000000
      0.1827313	      0.0380988	      0.0000000
      0.1651752	      0.0397560	      0.0000000
      0.1466737	      0.0406167	      0.0000000
      0.1276592	      0.0406658	      0.0000000
      0.1084152	      0.0398903	      0.0000000
      0.0894420	      0.0381956	      0.0000000
      0.0709820	      0.0355323	      0.0000000
      0.0536750	      0.0317169	      0.0000000
      0.0376917	      0.0267816	      0.0000000
      0.0239216	      0.0205563	      0.0000000
      0.0123778	      0.0135755	      0.0000000
      0.0044612	      0.0060289	      0.0000000
      0.0000000	      0.0000000	      0.0000000
      0.0000000	      0.0000000	      0.0000000
     -0.0023113	     -0.0097845	      0.0000000
     -0.0019631	     -0.0163923	      0.0000000
     -0.0001893	     -0.0204442	      0.0000000
      0.0016350	     -0.0223250	      0.0000000
      0.0038047	     -0.0226252	      0.0000000
      0.0054617	     -0.0216747	      0.0000000
      0.0067295	     -0.0198705	      0.0000000
      0.0071104	     -0.0174253	      0.0000000
      0.0066627	     -0.0145682	      0.0000000
      0.0051091	     -0.0114148	      0.0000000
      0.0024781	     -0.0080810	      0.0000000
     -0.0013853	     -0.0046176	      0.0000000
     -0.0064725	     -0.0010732	      0.0000000
     -0.0128761	      0.0025386	      0.0000000
     -0.0205986	      0.0062010	      0.0000000
     -0.0296972	      0.0099127	      0.0000000
     -0.0401827	      0.0136705	      0.0000000
     -0.0520955	      0.0174782	      0.0000000
     -0.0654502	      0.0213347	      0.0000000
     -0.0802744	      0.0252400	      0.0000000
     -0.0965784	      0.0291885	      0.0000000
     -0.1143744	      0.0331716	      0.0000000
     -0.1336602	      0.0371747	      0.0000000
     -0.1544274	      0.0411787	      0.0000000
     -0.1766523	      0.0451580	      0.0000000
     -0.2002992	      0.0490813	      0.0000000
     -0.2253141	      0.0529106	      0.0000000
     -0.2516266	      0.0566022	      0.0000000
     -0.2791454	      0.0601060	      0.0000000
     -0.3077593	      0.0633667	      0.0000000
     -0.3373346	      0.0663243	      0.0000000
     -0.3677155	      0.0689147	      0.0000000
     -0.3987239	      0.0710714	      0.0000000
     -0.4301601	      0.0727262	      0.0000000
     -0.4618032	      0.0738111	      0.0000000
     -0.4934135	      0.0742595	      0.0000000
     -0.5247340	      0.0740076	      0.0000000
     -0.5554933	      0.0729963	      0.0000000
     -0.5854082	      0.0711725	      0.0000000
     -0.6141876	      0.0684908	      0.0000000
     -0.6415352	      0.0649145	      0.0000000
     -0.6671543	      0.0604173	      0.0000000
     -0.6907510	      0.0549843	      0.0000000
     -0.7120381	      0.0486128	      0.0000000
     -0.7307397	      0.0413140	      0.0000000
     -0.7465942	      0.0331129	      0.0000000
     -0.7593582	      0.0240501	      0.0000000
     -0.7688106	      0.0141816	      0.0000000
     -0.7747536	      0.0035812	      0.0000000
     -0.7770202	     -0.0076591	      0.0000000
     -0.7754697	     -0.0194276	      0.0000000
     -0.7699985	     -0.0316083	      0.0000000
     -0.7605339	     -0.0440776	      0.0000000
     -0.7470405	     -0.0566970	      0.0000000
     -0.7295209	     -0.0693184	      0.0000000
     -0.7080180	     -0.0817821	      0.0000000
     -0.6826166	     -0.0939214	      0.0000000
     -0.6534437	     -0.1055638	      0.0000000
     -0.6206694	     -0.1165342	      0.0000000
     -0.5845069	     -0.1266575	      0.0000000
     -0.5452125	     -0.1357617	      0.0000000
     -0.5030845	     -0.1436812	      0.0000000
     -0.4584626	     -0.1502606	      0.0000000
     -0.4117255	     -0.1553577	      0.0000000
     -0.3632890	     -0.1588482	      0.0000000
     -0.3136028	     -0.1606292	      0.0000000
     -0.2631463	     -0.1606235	      0.0000000
     -0.2124237	     -0.1587838	      0.0000000
     -0.1619589	     -0.1550963	      0.0000000
     -0.1122870	     -0.1495857	      0.0000000
     -0.0639514	     -0.1423170	      0.0000000
     -0.0174873	     -0.1334028	      0.0000000
      0.0265750	     -0.1229944	      0.0000000
      0.0677440	     -0.1112913	      0.0000000
      0.1055654	     -0.0985168	      0.0000000
      0.1396446	     -0.0849194	      0.0000000
      0.1696542	     -0.0707707	      0.0000000
      0.1953351	     -0.0563565	      0.0000000
      0.2165071	     -0.0419634	      0.0000000
      0.2330784	     -0.0278713	      0.0000000
      0.2450354	     -0.0143469	      0.0000000
      0.2524646	     -0.0016373	      0.0000000
      0.2555068	      0.0100371	      0.0000000
      0.2544485	      0.0205471	      0.0000000
      0.2496030	      0.0298277	      0.0000000
      0.2413432	      0.0378371	      0.0000000
      0.2300405	      0.0445656	      0.0000000
      0.2161219	      0.0500223	      0.0000000
      0.1999766	      0.0542333	      0.0000000
      0.1820665	      0.0572205	      0.0000000
      0.1627672	      0.0590065	      0.0000000
      0.1425795	      0.0595745	      0.0000000
      0.1218448	      0.0589016	      0.0000000
      0.1011415	      0.0568822	      0.0000000
      0.0807584	      0.0534399	      0.0000000
      0.0614363	      0.0483689	      0.0000000
      0.0433747	      0.0416431	      0.0000000
      0.0276455	      0.0330568	      0.0000000
      0.0142881	      0.0229812	      0.0000000
      0.0051140	      0.0114850	      0.0000000
      0.0000000	      0.0000000	      0.0000000
      0.0000000	      0.0000000	      0.0000000
     -0.0023362	     -0.0115757	      0.0000000
     -0.0022009	     -0.0192600	      0.0000000
     -0.0008787	     -0.0238867	      0.0000000
      0.0002806	     -0.0259051	      0.0000000
      0.0015685	     -0.0259946	      0.0000000
      0.0021737	     -0.0245370	      0.0000000
      0.0022174	     -0.0220003	      0.0000000