# vtk DataFile Version 2.0
vw
ASCII
DATASET STRUCTURED_POINTS
DIMENSIONS  102  102    1
ORIGIN      0.0000000      0.0000000      0.0000000
SPACING      0.0100000      0.0100000      0.0100000
POINT_DATA  10404
VECTORS velocity float
      0.0000000	      0.0000000	      0.0000000
      0.0000000	      0.0000000	      0.0000000
      0.0000000	      0.0000000	      0.0000000
      0.0000000	      0.0000000	      0.0000000
      0.0000000	      0.0000000	      0.0000000
      0.0000000	      0.0000000	      0.0000000
      0.0000000	      0.0000000	      0.0000000
      0.0000000	      0.0000000	      0.0000000
      0.0000000	      0.0000000	      0.0000000
      0.0000000	      0.0000000	      0.0000000
      0.0000000	      0.0000000	      0.0000000
      0.0000000	      0.0000000	      0.0000000
      0.0000000	      0.0000000	      0.0000000
      0.0000000	      0.0000000	      0.0000000
      0.0000000	      0.0000000	      0.0000000
      0.0000000	      0.0000000	      0.0000000
      0.0000000	      0.0000000	      0.0000000
      0.0000000	      0.0000000	      0.0000000
      0.0000000	      0.0000000	      0.0000000
      0.0000000	      0.0000000	      0.0000000
      0.0000000	      0.0000000	      0.0000000
      0.0000000	      0.0000000	      0.0000000
      0.0000000	      0.0000000	      0.0000000
      0.0000000	      0.0000000	      0.0000000
      0.0000000	      0.0000000	      0.0000000
      0.0000000	      0.0000000	      0.0000000
      0.0000000	      0.0000000	      0.0000000
      0.0000000	      0.0000000	      0.0000000
      0.0000000	      0.0000000	      0.0000000
      0.0000000	      0.0000000	      0.0000000
      0.0000000	      0.0000000	      0.0000000
      0.0000000	      0.0000000	      0.0000000
      0.0000000	      0.0000000	      0.0000000
      0.0000000	      0.0000000	      0.0000000
      0.0000000	      0.0000000	      0.0000000
      0.0000000	      0.0000000	      0.0000000
      0.0000000	      0.0000000	      0.0000000
      0.0000000	      0.0000000	      0.0000000
      0.0000000	      0.0000000	      0.0000000
      0.0000000	      0.0000000	      0.0000000
      0.0000000	      0.0000000	      0.0000000
      0.0000000	      0.0000000	      0.0000000
      0.0000000	      0.0000000	      0.0000000
      0.0000000	      0.0000000	      0.0000000
      0.0000000	      0.0000000	      0.0000000
      0.0000000	      0.0000000	      0.0000000
      0.0000000	      0.0000000	      0.0000000
      0.0000000	      0.0000000	      0.0000000
      0.0000000	      0.0000000	      0.0000000
      0.0000000	      0.0000000	      0.0000000
      0.0000000	      0.0000000	      0.0000000
      0.0000000	      0.0000000	      0.0000000
      0.0000000	      0.0000000	      0.0000000
      0.0000000	      0.0000000	      0.0000000
      0.0000000	      0.0000000	      0.0000000
      0.0000000	      0.0000000	      0.0000000
      0.0000000	      0.0000000	      0.0000000
      0.0000000	      0.0000000	      0.0000000
      0.0000000	      0.0000000	      0.0000000
      0.0000000	      0.0000000	      0.0000000
      0.0000000	      0.0000000	      0.0000000
      0.0000000	      0.0000000	      0.0000000
      0.0000000	      0.0000000	      0.0000000
      0.0000000	      0.0000000	      0.0000000
      0.0000000	      0.0000000	      0.0000000
      0.0000000	      0.0000000	      0.0000000
      0.0000000	      0.0000000	      0.0000000
      0.0000000	      0.0000000	      0.0000000
      0.0000000	      0.0000000	      0.0000000
      0.0000000	      0.0000000	      0.0000000
      0.0000000	      0.0000000	      0.0000000
      0.0000000	      0.0000000	      0.0000000
      0.0000000	      0.0000000	      0.0000000
      0.0000000	      0.0000000	      0.0000000
      0.0000000	      0.0000000	      0.0000000
      0.0000000	      0.0000000	      0.0000000
      0.0000000	      0.0000000	      0.0000000
      0.0000000	      0.0000000	      0.0000000
      0.0000000	      0.0000000	      0.0000000
      0.0000000	      0.0000000	      0.0000000
      0.0000000	      0.0000000	      0.0000000
      0.0000000	      0.0000000	      0.0000000
      0.0000000	      0.0000000	      0.0000000
      0.0000000	      0.0000000	      0.0000000
      0.0000000	      0.0000000	      0.0000000
      0.0000000	      0.0000000	      0.0000000
      0.0000000	      0.0000000	      0.0000000
      0.0000000	      0.0000000	      0.0000000
      0.0000000	      0.0000000	      0.0000000
      0.0000000	      0.0000000	      0.0000000
      0.0000000	      0.0000000	      0.0000000
      0.0000000	      0.0000000	      0.0000000
      0.0000000	      0.0000000	      0.0000000
      0.0000000	      0.0000000	      0.0000000
      0.0000000	      0.0000000	      0.0000000
      0.0000000	      0.0000000	      0.0000000
      0.0000000	      0.0000000	      0.0000000
      0.0000000	      0.0000000	      0.0000000
      0.0000000	      0.0000000	      0.0000000
      0.0000000	      0.0000000	      0.0000000
      0.0000000	      0.0000000	      0.0000000
      0.0000000	      0.0000000	      0.0000000
      0.0000000	      0.0000000	      0.0000000
     -0.0121607	     -0.0151288	      0.0000000
     -0.0110702	     -0.0214671	      0.0000000
     -0.0010394	     -0.0247288	      0.0000000
      0.0102075	     -0.0260988	      0.0000000
      0.0235431	     -0.0262103	      0.0000000
      0.0361429	     -0.0254707	      0.0000000
      0.0476409	     -0.0241316	      0.0000000
      0.0569940	     -0.0224605	      0.0000000
      0.0640025	     -0.0206577	      0.0000000
      0.0684732	     -0.0188960	      0.0000000
      0.0705479	     -0.0172871	      0.0000000
      0.0704342	     -0.0158954	      0.0000000
      0.0684358	     -0.0147349	      0.0000000
      0.0648461	     -0.0137846	      0.0000000
      0.0599261	     -0.0129979	      0.0000000
      0.0538705	     -0.0123183	      0.0000000
      0.0468063	     -0.0116883	      0.0000000
      0.0387869	     -0.0110592	      0.0000000
      0.0298100	     -0.0103969	      0.0000000
      0.0198315	     -0.0096808	      0.0000000
      0.0087859	     -0.0089014	      0.0000000
     -0.0034034	     -0.0080522	      0.0000000
     -0.0168099	     -0.0071342	      0.0000000
     -0.0314894	     -0.0061604	      0.0000000
     -0.0474826	     -0.0051426	      0.0000000
     -0.0648112	     -0.0040934	      0.0000000
     -0.0834780	     -0.0030249	      0.0000000
     -0.1034673	     -0.0019496	      0.0000000
     -0.1247419	     -0.0008785	      0.0000000
     -0.1472500	      0.0001757	      0.0000000
     -0.1709115	      0.0011924	      0.0000000
     -0.1956293	      0.0021557	      0.0000000
     -0.2212877	      0.0030524	      0.0000000
     -0.2477542	      0.0038688	      0.0000000
     -0.2748794	      0.0045912	      0.0000000
     -0.3024987	      0.0052056	      0.0000000
     -0.3304326	      0.0056984	      0.0000000
     -0.3584886	      0.0060564	      0.0000000
     -0.3864626	      0.0062671	      0.0000000
     -0.4141402	      0.0063191	      0.0000000
     -0.4412989	      0.0062019	      0.0000000
     -0.4677094	      0.0059063	      0.0000000
     -0.4931378	      0.0054243	      0.0000000
     -0.5173472	      0.0047495	      0.0000000
     -0.5400990	      0.0038767	      0.0000000
     -0.5611565	      0.0028027	      0.0000000
     -0.5802829	      0.0015266	      0.0000000
     -0.5972521	      0.0000496	      0.0000000
     -0.6118330	     -0.0016162	      0.0000000
     -0.6238205	     -0.0034549	      0.0000000
     -0.6330093	     -0.0054937	      0.0000000
     -0.6391712	     -0.0077720	      0.0000000
     -0.6420708	     -0.0102732	      0.0000000
     -0.6415144	     -0.0129616	      0.0000000
     -0.6373478	     -0.0158054	      0.0000000
     -0.6294511	     -0.0187727	      0.0000000
     -0.6177415	     -0.0218310	      0.0000000
     -0.6021731	     -0.0249455	      0.0000000
     -0.5827402	     -0.0280782	      0.0000000
     -0.5594804	     -0.0311873	      0.0000000
     -0.5324782	     -0.0342274	      0.0000000
     -0.5018680	     -0.0371497	      0.0000000
     -0.4678384	     -0.0399023	      0.0000000
     -0.4306343	     -0.0424311	      0.0000000
     -0.3905594	     -0.0446807	      0.0000000
     -0.3479779	     -0.0465955	      0.0000000
     -0.3033141	     -0.0481216	      0.0000000
     -0.2570516	     -0.0492083	      0.0000000
     -0.2097296	     -0.0498101	      0.0000000
     -0.1619378	     -0.0498895	      0.0000000
     -0.1143087	     -0.0494191	      0.0000000
     -0.0675064	     -0.0483852	      0.0000000
     -0.0222128	     -0.0467895	      0.0000000
      0.0208901	     -0.0446599	      0.0000000
      0.0611411	     -0.0420456	      0.0000000
      0.0979390	     -0.0389910	      0.0000000
      0.1307386	     -0.0355677	      0.0000000
      0.1590816	     -0.0318681	      0.0000000
      0.1826164	     -0.0279930	      0.0000000
      0.2011136	     -0.0240561	      0.0000000
      0.2144805	     -0.0201731	      0.0000000
      0.2227678	     -0.0164563	      0.0000000
      0.2261660	     -0.0130109	      0.0000000
      0.2250049	     -0.0099302	      0.0000000
      0.2197316	     -0.0072867	      0.0000000
      0.2109029	     -0.0051337	      0.0000000
      0.1991240	     -0.0034477	      0.0000000
      0.1849785	     -0.0021719	      0.0000000
      0.1690276	     -0.0012863	      0.0000000
      0.1518193	     -0.0007569	      0.0000000
      0.1338526	     -0.0005436	      0.0000000
      0.1155876	     -0.0006062	      0.0000000
      0.0974278	     -0.0009126	      0.0000000
      0.0797636	     -0.0014559	      0.0000000
      0.0629514	     -0.0022508	      0.0000000
      0.0474228	     -0.0033646	      0.0000000
      0.0335900	     -0.0048170	      0.0000000
      0.0219683	     -0.0066434	      0.0000000
      0.0129287	     -0.0081822	      0.0000000
      0.0059152	     -0.0083303	      0.0000000
      0.0000000	      0.0000000	      0.0000000
      0.0000000	      0.0000000	      0.0000000
     -0.0122752	     -0.0248023	      0.0000000
     -0.0092218	     -0.0393316	      0.0000000
      0.0047417	     -0.0480201	      0.0000000
      0.0215763	     -0.0522561	      0.0000000
      0.0414247	     -0.0530872	      0.0000000
      0.0605140	     -0.0513949	      0.0000000
      0.0778984	     -0.0479033	      0.0000000
      0.0919964	     -0.0433214	      0.0000000
      0.1023155	     -0.0382350	      0.0000000
      0.1084754	     -0.0331282	      0.0000000
      0.1105697	     -0.0283370	      0.0000000
      0.1088326	     -0.0240620	      0.0000000
      0.1036540	     -0.0203718	      0.0000000
      0.0954343	     -0.0172342	      0.0000000
      0.0845438	     -0.0145430	      0.0000000
      0.0712724	     -0.0121677	      0.0000000
      0.0558154	     -0.0099633	      0.0000000
      0.0382733	     -0.0077986	      0.0000000
      0.0186647	     -0.0055752	      0.0000000
     -0.0030496	     -0.0032263	      0.0000000
     -0.0269448	     -0.0007213	      0.0000000
     -0.0531084	      0.0019496	      0.0000000
     -0.0815985	      0.0047628	      0.0000000
     -0.1124592	      0.0076858	      0.0000000
     -0.1457039	      0.0106830	      0.0000000
     -0.1813133	      0.0137154	      0.0000000
     -0.2192320	      0.0167430	      0.0000000
     -0.2593683	      0.0197246	      0.0000000
     -0.3015936	      0.0226195	      0.0000000
     -0.3457424	      0.0253825	      0.0000000
     -0.3916162	      0.0279667	      0.0000000
     -0.4389861	      0.0303305	      0.0000000
     -0.4875926	      0.0324348	      0.0000000
     -0.5371482	      0.0342414	      0.0000000
     -0.5873408	      0.0357133	      0.0000000
     -0.6378362	      0.0368157	      0.0000000
     -0.6882818	      0.0375157	      0.0000000
     -0.7383099	      0.0377837	      0.0000000
     -0.7875411	      0.0375930	      0.0000000
     -0.8355880	      0.0369208	      0.0000000
     -0.8820583	      0.0357478	      0.0000000
     -0.9265585	      0.0340589	      0.0000000
     -0.9686967	      0.0318428	      0.0000000
     -1.0080863	      0.0290927	      0.0000000
     -1.0443479	      0.0258059	      0.0000000
     -1.0771134	      0.0219839	      0.0000000
     -1.1060261	      0.0176333	      0.0000000
     -1.1307472	      0.0127645	      0.0000000
     -1.1509459	      0.0073968	      0.0000000
     -1.1663159	      0.0015528	      0.0000000
     -1.1765254	     -0.0047812	      0.0000000
     -1.1813062	     -0.0116370	      0.0000000
     -1.1804236	     -0.0189730	      0.0000000
     -1.1736884	     -0.0267004	      0.0000000
     -1.1609673	     -0.0347396	      0.0000000
     -1.1421729	     -0.0430090	      0.0000000
     -1.1172702	     -0.0514254	      0.0000000
     -1.0862762	     -0.0599002	      0.0000000
     -1.0492636	     -0.0683383	      0.0000000
     -1.0063634	     -0.0766376	      0.0000000
     -0.9577684	     -0.0846881	      0.0000000
     -0.9037364	     -0.0923733	      0.0000000
     -0.8445937	     -0.0995703	      0.0000000
     -0.7807380	     -0.1061517	      0.0000000
     -0.7126406	     -0.1119872	      0.0000000
     -0.6408484	     -0.1169463	      0.0000000
     -0.5659839	     -0.1209013	      0.0000000
     -0.4887447	     -0.1237309	      0.0000000
     -0.4099006	     -0.1253247	      0.0000000
     -0.3302887	     -0.1255878	      0.0000000
     -0.2508064	     -0.1244464	      0.0000000
     -0.1724001	     -0.1218543	      0.0000000
     -0.0960553	     -0.1177995	      0.0000000
     -0.0227671	     -0.1123138	      0.0000000
      0.0464467	     -0.1054854	      0.0000000
      0.1106338	     -0.0974490	      0.0000000
      0.1689242	     -0.0883600	      0.0000000
      0.2205456	     -0.0784272	      0.0000000
      0.2648527	     -0.0678964	      0.0000000
      0.3013525	     -0.0570416	      0.0000000
      0.3297373	     -0.0461587	      0.0000000
      0.3498993	     -0.0355448	      0.0000000
      0.3619379	     -0.0254894	      0.0000000
      0.3661706	     -0.0162605	      0.0000000
      0.3631081	     -0.0080882	      0.0000000
      0.3534707	     -0.0011395	      0.0000000
      0.3380841	      0.0045619	      0.0000000
      0.3179067	      0.0090633	      0.0000000
      0.2938663	      0.0123958	      0.0000000
      0.2669005	      0.0146316	      0.0000000
      0.2378937	      0.0158636	      0.0000000
      0.2076873	      0.0161893	      0.0000000
      0.1770492	      0.0156923	      0.0000000
      0.1467236	      0.0144083	      0.0000000
      0.1173831	      0.0123296	      0.0000000
      0.0897824	      0.0093586	      0.0000000
      0.0645451	      0.0054829	      0.0000000
      0.0425495	      0.0006890	      0.0000000
      0.0241189	     -0.0039678	      0.0000000
      0.0101474	     -0.0069951	      0.0000000
      0.0000000	      0.0000000	      0.0000000
      0.0000000	      0.0000000	      0.0000000
     -0.0108567	     -0.0336521	      0.0000000
     -0.0058143	     -0.0579623	      0.0000000
      0.0106923	     -0.0735439	      0.0000000
      0.0304592	     -0.0815859	      0.0000000
      0.0533151	     -0.0833977	      0.0000000
      0.0751215	     -0.0803789	      0.0000000
      0.0946249	     -0.0738695	      0.0000000
      0.1099824	     -0.0651488	      0.0000000
      0.1205194	     -0.0553237	      0.0000000
      0.1257283	     -0.0452968	      0.0000000
      0.1256317	     -0.0357165	      0.0000000
      0.1204305	     -0.0269802	      0.0000000
      0.1105095	     -0.0192473	      0.0000000
      0.0962820	     -0.0124879	      0.0000000
      0.0781312	     -0.0065401	      0.0000000
      0.0563771	     -0.0011734	      0.0000000
      0.0312283	      0.0038600	      0.0000000
      0.0028382	      0.0087828	      0.0000000
     -0.0287518	      0.0137671	      0.0000000
     -0.0635276	      0.0189262	      0.0000000
     -0.1015192	      0.0243141	      0.0000000
     -0.1427522	      0.0299269	      0.0000000
     -0.1872347	      0.0357220	      0.0000000
     -0.2349442	      0.0416381	      0.0000000
     -0.2858147	      0.0476002	      0.0000000
     -0.3397323	      0.0535261	      0.0000000
     -0.3965335	      0.0593303	      0.0000000
     -0.4560051	      0.0649262	      0.0000000
     -0.5178861	      0.0702278	      0.0000000
     -0.5818700	      0.0751492	      0.0000000
     -0.6476113	      0.0796054	      0.0000000
     -0.7147283	      0.0835173	      0.0000000
     -0.7828058	      0.0868111	      0.0000000
     -0.8514007	      0.0894179	      0.0000000
     -0.9200470	      0.0912747	      0.0000000
     -0.9882615	      0.0923243	      0.0000000
     -1.0555488	      0.0925166	      0.0000000
     -1.1214068	      0.0918088	      0.0000000
     -1.1853321	      0.0901659	      0.0000000
     -1.2468242	      0.0875607	      0.0000000
     -1.3053905	      0.0839742	      0.0000000
     -1.3605500	      0.0793954	      0.0000000
     -1.4118371	      0.0738211	      0.0000000
     -1.4588050	      0.0672556	      0.0000000
     -1.5010280	      0.0597109	      0.0000000
     -1.5381043	      0.0512059	      0.0000000
     -1.5696565	      0.0417662	      0.0000000
     -1.5953352	      0.0314224	      0.0000000
     -1.6148115	      0.0202097	      0.0000000
     -1.6277926	      0.0081629	      0.0000000
     -1.6339898	     -0.0047136	      0.0000000
     -1.6331325	     -0.0183826	      0.0000000
     -1.6251385	     -0.0327204	      0.0000000
     -1.6099056	     -0.0475895	      0.0000000
     -1.5873993	     -0.0628556	      0.0000000
     -1.5576213	     -0.0783824	      0.0000000
     -1.5206233	     -0.0940283	      0.0000000
     -1.4765054	     -0.1096443	      0.0000000
     -1.4254202	     -0.1250718	      0.0000000
     -1.3675746	     -0.1401420	      0.0000000
     -1.3032330	     -0.1546753	      0.0000000
     -1.2327208	     -0.1684823	      0.0000000
     -1.1564269	     -0.1813644	      0.0000000
     -1.0748073	     -0.1931157	      0.0000000
     -0.9883879	     -0.2035257	      0.0000000
     -0.8977670	     -0.2123826	      0.0000000
     -0.8036168	     -0.2194778	      0.0000000
     -0.7066844	     -0.2246106	      0.0000000
     -0.6077904	     -0.2275948	      0.0000000
     -0.5078275	     -0.2282658	      0.0000000
     -0.4077552	     -0.2264885	      0.0000000
     -0.3085932	     -0.2221663	      0.0000000
     -0.2114113	     -0.2152522	      0.0000000
     -0.1173203	     -0.2057579	      0.0000000
     -0.0274411	     -0.1937799	      0.0000000
      0.0570641	     -0.1795004	      0.0000000
      0.1351217	     -0.1631985	      0.0000000
      0.2057454	     -0.1451995	      0.0000000
      0.2680622	     -0.1258833	      0.0000000
      0.3213374	     -0.1057134	      0.0000000
      0.3650142	     -0.0851944	      0.0000000
      0.3987441	     -0.0648509	      0.0000000
      0.4224007	     -0.0452142	      0.0000000
      0.4361052	     -0.0267953	      0.0000000
      0.4402197	     -0.0100558	      0.0000000
      0.4353527	      0.0046098	      0.0000000
      0.4223517	      0.0169969	      0.0000000
      0.4023422	      0.0270840	      0.0000000
      0.3764185	      0.0348893	      0.0000000
      0.3457480	      0.0405018	      0.0000000
      0.3114721	      0.0440583	      0.0000000
      0.2747128	      0.0457141	      0.0000000
      0.2365264	      0.0456121	      0.0000000
      0.1979507	      0.0438348	      0.0000000
      0.1599258	      0.0404013	      0.0000000
      0.1234910	      0.0352188	      0.0000000
      0.0894655	      0.0282801	      0.0000000
      0.0591362	      0.0195977	      0.0000000
      0.0329606	      0.0102365	      0.0000000
      0.0133177	      0.0016250	      0.0000000
      0.0000000	      0.0000000	      0.0000000
      0.0000000	      0.0000000	      0.0000000
     -0.0092989	     -0.0457464	      0.0000000
     -0.0026573	     -0.0796834	      0.0000000
      0.0152157	     -0.1018290	      0.0000000
      0.0358746	     -0.1133078	      0.0000000
      0.0591033	     -0.1156679	      0.0000000
      0.0806716	     -0.1107979	      0.0000000
      0.0992509	     -0.1006309	      0.0000000
      0.1129215	     -0.0870288	      0.0000000
      0.1209462	     -0.0716287	      0.0000000
      0.1227572	     -0.0557664	      0.0000000
      0.1183222	     -0.0404144	      0.0000000
      0.1077884	     -0.0261763	      0.0000000
      0.0914872	     -0.0133132	      0.0000000
      0.0697767	     -0.0018046	      0.0000000
      0.0429876	      0.0085675	      0.0000000
      0.0114761	      0.0180893	      0.0000000
     -0.0245238	      0.0270844	      0.0000000
     -0.0648315	      0.0358531	      0.0000000
     -0.1093419	      0.0446329	      0.0000000
     -0.1579903	      0.0535707	      0.0000000
     -0.2107248	      0.0627325	      0.0000000
     -0.2674794	      0.0721044	      0.0000000
     -0.3281582	      0.0816145	      0.0000000
     -0.3926204	      0.0911559	      0.0000000
     -0.4606707	      0.1006013	      0.0000000
     -0.5320565	      0.1098132	      0.0000000
     -0.6064680	      0.1186507	      0.0000000
     -0.6835410	      0.1269737	      0.0000000
     -0.7628603	      0.1346458	      0.0000000
     -0.8439656	      0.1415353	      0.0000000
     -0.9263588	      0.1475177	      0.0000000
     -1.0095102	      0.1524786	      0.0000000
     -1.0928647	      0.1563143	      0.0000000
     -1.1758488	      0.1589324	      0.0000000
     -1.2578784	      0.1602524	      0.0000000
     -1.3383656	      0.1602064	      0.0000000
     -1.4167253	      0.1587396	      0.0000000
     -1.4923822	      0.1558104	      0.0000000
     -1.5647759	      0.1513906	      0.0000000
     -1.6333664	      0.1454650	      0.0000000
     -1.6976379	      0.1380307	      0.0000000
     -1.7571028	      0.1290973	      0.0000000
     -1.8113046	      0.1186852	      0.0000000
     -1.8598197	      0.1068257	      0.0000000
     -1.9022593	      0.0935593	      0.0000000
     -1.9382701	      0.0789352	      0.0000000
     -1.9675343	      0.0630103	      0.0000000
     -1.9897708	      0.0458465	      0.0000000
     -2.0047276	      0.0275109	      0.0000000
     -2.0122128	      0.0080707	      0.0000000
     -2.0120053	     -0.0124372	      0.0000000
     -2.0040231	     -0.0338696	      0.0000000
     -1.9882810	     -0.0560166	      0.0000000
     -1.9647862	     -0.0787140	      0.0000000
     -1.9335899	     -0.1017864	      0.0000000
     -1.8947705	     -0.1250558	      0.0000000
     -1.8484423	     -0.1483347	      0.0000000
     -1.7947564	     -0.1714255	      0.0000000
     -1.7339043	     -0.1941181	      0.0000000
     -1.6661206	     -0.2161893	      0.0000000
     -1.5916860	     -0.2374022	      0.0000000
     -1.5109315	     -0.2575064	      0.0000000
     -1.4242419	     -0.2762393	      0.0000000
     -1.3320597	     -0.2933276	      0.0000000
     -1.2348893	     -0.3084907	      0.0000000
     -1.1333005	     -0.3214443	      0.0000000
     -1.0279317	     -0.3319058	      0.0000000
     -0.9194922	     -0.3396002	      0.0000000
     -0.8087638	     -0.3442683	      0.0000000
     -0.6966002	     -0.3456749	      0.0000000
     -0.5839255	     -0.3436195	      0.0000000
     -0.4717296	     -0.3379474	      0.0000000
     -0.3610630	     -0.3285625	      0.0000000
     -0.2530256	     -0.3154427	      0.0000000
     -0.1487601	     -0.2986524	      0.0000000
     -0.0494271	     -0.2783831	      0.0000000
      0.0437725	     -0.2549423	      0.0000000
      0.1296889	     -0.2287781	      0.0000000
      0.2072911	     -0.2004100	      0.0000000
      0.2756449	     -0.1704229	      0.0000000
      0.3339815	     -0.1395185	      0.0000000
      0.3817079	     -0.1084324	      0.0000000
      0.4184371	     -0.0779317	      0.0000000
      0.4440333	     -0.0487802	      0.0000000
      0.4585970	     -0.0216955	      0.0000000
      0.4625368	      0.0026523	      0.0000000
      0.4564468	      0.0237436	      0.0000000
      0.4414604	      0.0413872	      0.0000000
      0.4186864	      0.0555459	      0.0000000
      0.3893749	      0.0662670	      0.0000000
      0.3547994	      0.0736895	      0.0000000
      0.3162561	      0.0779961	      0.0000000
      0.2750028	      0.0793721	      0.0000000
      0.2323029	      0.0779447	      0.0000000
      0.1893156	      0.0737632	      0.0000000
      0.1473333	      0.0667463	      0.0000000
      0.1073747	      0.0568460	      0.0000000
      0.0711406	      0.0440018	      0.0000000
      0.0393296	      0.0289667	      0.0000000
      0.0155500	      0.0127880	      0.0000000
      0.0000000	      0.0000000	      0.0000000
      0.0000000	      0.0000000	      0.0000000
     -0.0083542	     -0.0584831	      0.0000000
     -0.0009404	     -0.1018555	      0.0000000
      0.0171409	     -0.1300664	      0.0000000
      0.0371118	     -0.1443048	      0.0000000
      0.0587498	     -0.1464777	      0.0000000
      0.0778416	     -0.1389858	      0.0000000
      0.0931153	     -0.1243703	      0.0000000
      0.1026985	     -0.1050781	      0.0000000
      0.1058903	     -0.0832719	      0.0000000
      0.1021303	     -0.0607116	      0.0000000
      0.0913704	     -0.0386813	      0.0000000
      0.0737093	     -0.0179853	      0.0000000
      0.0494048	      0.0010326	      0.0000000
      0.0187225	      0.0183916	      0.0000000
     -0.0179332	      0.0342550	      0.0000000
     -0.0602494	      0.0489613	      0.0000000
     -0.1079473	      0.0629222	      0.0000000
     -0.1608310	      0.0765022	      0.0000000
     -0.2187380	      0.0899836	      0.0000000
     -0.2815215	      0.1035328	      0.0000000
     -0.3490210	      0.1172029	      0.0000000
     -0.4210413	      0.1309483	      0.0000000
     -0.4973410	      0.1446518	      0.0000000
     -0.5776238	      0.1581517	      0.0000000
     -0.6615333	      0.1712609	      0.0000000
     -0.7486536	      0.1837816	      0.0000000
     -0.8385125	      0.1955153	      0.0000000
     -0.9305872	      0.2062685	      0.0000000
     -1.0243107	      0.2158576	      0.0000000
     -1.1190807	      0.2241110	      0.0000000
     -1.2142686	      0.2308724	      0.0000000
     -1.3092280	      0.2360028	      0.0000000
     -1.4033038	      0.2393818	      0.0000000
     -1.4958404	      0.2409086	      0.0000000
     -1.5861908	      0.2405020	      0.0000000
     -1.6737237	      0.2381011	      0.0000000
     -1.7578308	      0.2336649	      0.0000000
     -1.8379329	      0.2271718	      0.0000000
     -1.9134846	      0.2186187	      0.0000000
     -1.9839783	      0.2080200	      0.0000000
     -2.0489473	      0.1954066	      0.0000000
     -2.1079675	      0.1808236	      0.0000000
     -2.1606585	      0.1643299	      0.0000000
     -2.2066839	      0.1459957	      0.0000000
     -2.2457506	      0.1259014	      0.0000000
     -2.2776082	      0.1041359	      0.0000000
     -2.3020472	      0.0807952	      0.0000000
     -2.3188980	      0.0559796	      0.0000000
     -2.3280248	      0.0297960	      0.0000000
     -2.3293624	      0.0023395	      0.0000000
     -2.3227644	     -0.0262770	      0.0000000
     -2.3083683	     -0.0558103	      0.0000000
     -2.2862097	     -0.0860256	      0.0000000
     -2.2563695	     -0.1167361	      0.0000000
     -2.2189385	     -0.1477411	      0.0000000
     -2.1740277	     -0.1788332	      0.0000000
     -2.1217690	     -0.2097925	      0.0000000
     -2.0623190	     -0.2403857	      0.0000000
     -1.9958624	     -0.2703634	      0.0000000
     -1.9226153	     -0.2994596	      0.0000000
     -1.8428298	     -0.3273903	      0.0000000
     -1.7567982	     -0.3538541	      0.0000000
     -1.6648582	     -0.3785327	      0.0000000
     -1.5673974	     -0.4010930	      0.0000000
     -1.4648590	     -0.4211902	      0.0000000
     -1.3577460	     -0.4384723	      0.0000000
     -1.2466265	     -0.4525858	      0.0000000
     -1.1321366	     -0.4631828	      0.0000000
     -1.0149841	     -0.4699305	      0.0000000
     -0.8959496	     -0.4725211	      0.0000000
     -0.7758865	     -0.4706839	      0.0000000
     -0.6557192	     -0.4641992	      0.0000000
     -0.5364387	     -0.4529134	      0.0000000
     -0.4190959	     -0.4367555	      0.0000000
     -0.3047930	     -0.4157571	      0.0000000
     -0.1946712	     -0.3900698	      0.0000000
     -0.0899143	     -0.3600024	      0.0000000
      0.0083017	     -0.3260252	      0.0000000
      0.0987199	     -0.2887371	      0.0000000
      0.1803278	     -0.2489202	      0.0000000
      0.2521400	     -0.2074049	      0.0000000
      0.3133716	     -0.1651038	      0.0000000
      0.3634009	     -0.1230130	      0.0000000
      0.4018399	     -0.0821404	      0.0000000
      0.4285230	     -0.0434719	      0.0000000
      0.4436072	     -0.0079411	      0.0000000
      0.4474014	      0.0235480	      0.0000000
      0.4407867	      0.0504965	      0.0000000
      0.4248271	      0.0727564	      0.0000000
      0.4007240	      0.0902791	      0.0000000
      0.3697789	      0.1031556	      0.0000000
      0.3333601	      0.1115547	      0.0000000
      0.2928414	      0.1156717	      0.0000000
      0.2496403	      0.1156569	      0.0000000
      0.2050878	      0.1115718	      0.0000000
      0.1606951	      0.1033290	      0.0000000
      0.1176854	      0.0907869	      0.0000000
      0.0781319	      0.0737245	      0.0000000
      0.0430022	      0.0523662	      0.0000000
      0.0167830	      0.0271025	      0.0000000
      0.0000000	      0.0000000	      0.0000000
      0.0000000	      0.0000000	      0.0000000
     -0.0079972	     -0.0720650	      0.0000000
     -0.0006852	     -0.1243470	      0.0000000
      0.0163902	     -0.1576754	      0.0000000
      0.0341805	     -0.1735815	      0.0000000
      0.0524776	     -0.1745180	      0.0000000
      0.0671619	     -0.1634563	      0.0000000
      0.0770999	     -0.1435585	      0.0000000