# vtk DataFile Version 2.0
vw
ASCII
DATASET STRUCTURED_POINTS
DIMENSIONS  102  102    1
ORIGIN      0.0000000      0.0000000      0.0000000
SPACING      0.0100000      0.0100000      0.0100000
POINT_DATA  10404
VECTORS velocity float
      0.0000000	      0.0000000	      0.0000000
      0.0000000	      0.0000000	      0.0000000
      0.0000000	      0.0000000	      0.0000000
      0.0000000	      0.0000000	      0.0000000
      0.0000000	      0.0000000	      0.0000000
      0.0000000	      0.0000000	      0.0000000
      0.0000000	      0.0000000	      0.0000000
      0.0000000	      0.0000000	      0.0000000
      0.0000000	      0.0000000	      0.0000000
      0.0000000	      0.0000000	      0.0000000
      0.0000000	      0.0000000	      0.0000000
      0.0000000	      0.0000000	      0.0000000
      0.0000000	      0.0000000	      0.0000000
      0.0000000	      0.0000000	      0.0000000
      0.0000000	      0.0000000	      0.0000000
      0.0000000	      0.0000000	      0.0000000
      0.0000000	      0.0000000	      0.0000000
      0.0000000	      0.0000000	      0.0000000
      0.0000000	      0.0000000	      0.0000000
      0.0000000	      0.0000000	      0.0000000
      0.0000000	      0.0000000	      0.0000000
      0.0000000	      0.0000000	      0.0000000
      0.0000000	      0.0000000	      0.0000000
      0.0000000	      0.0000000	      0.0000000
      0.0000000	      0.0000000	      0.0000000
      0.0000000	      0.0000000	      0.0000000
      0.0000000	      0.0000000	      0.0000000
      0.0000000	      0.0000000	      0.0000000
      0.0000000	      0.0000000	      0.0000000
      0.0000000	      0.0000000	      0.0000000
      0.0000000	      0.0000000	      0.0000000
      0.0000000	      0.0000000	      0.0000000
      0.0000000	      0.0000000	      0.0000000
      0.0000000	      0.0000000	      0.0000000
      0.0000000	      0.0000000	      0.0000000
      0.0000000	      0.0000000	      0.0000000
      0.0000000	      0.0000000	      0.0000000
      0.0000000	      0.0000000	      0.0000000
      0.0000000	      0.0000000	      0.0000000
      0.0000000	      0.0000000	      0.0000000
      0.0000000	      0.0000000	      0.0000000
      0.0000000	      0.0000000	      0.0000000
      0.0000000	      0.0000000	      0.0000000
      0.0000000	      0.0000000	      0.0000000
      0.0000000	      0.0000000	      0.0000000
      0.0000000	      0.0000000	      0.0000000
      0.0000000	      0.0000000	      0.0000000
      0.0000000	      0.0000000	      0.0000000
      0.0000000	      0.0000000	      0.0000000
      0.0000000	      0.0000000	      0.0000000
      0.0000000	      0.0000000	      0.0000000
      0.0000000	      0.0000000	      0.0000000
      0.0000000	      0.0000000	      0.0000000
      0.0000000	      0.0000000	      0.0000000
      0.0000000	      0.0000000	      0.0000000
      0.0000000	      0.0000000	      0.0000000
      0.0000000	      0.0000000	      0.0000000
      0.0000000	      0.0000000	      0.0000000
      0.0000000	      0.0000000	      0.0000000
      0.0000000	      0.0000000	      0.0000000
      0.0000000	      0.0000000	      0.0000000
      0.0000000	      0.0000000	      0.0000000
      0.0000000	      0.0000000	      0.0000000
      0.0000000	      0.0000000	      0.0000000
      0.0000000	      0.0000000	      0.0000000
      0.0000000	      0.0000000	      0.0000000
      0.0000000	      0.0000000	      0.0000000
      0.0000000	      0.0000000	      0.0000000
      0.0000000	      0.0000000	      0.0000000
      0.0000000	      0.0000000	      0.0000000
      0.0000000	      0.0000000	      0.0000000
      0.0000000	      0.0000000	      0.0000000
      0.0000000	      0.0000000	      0.0000000
      0.0000000	      0.0000000	      0.0000000
      0.0000000	      0.0000000	      0.0000000
      0.0000000	      0.0000000	      0.0000000
      0.0000000	      0.0000000	      0.0000000
      0.0000000	      0.0000000	      0.0000000
      0.0000000	      0.0000000	      0.0000000
      0.0000000	      0.0000000	      0.0000000
      0.0000000	      0.0000000	      0.0000000
      0.0000000	      0.0000000	      0.0000000
      0.0000000	      0.0000000	      0.0000000
      0.0000000	      0.0000000	      0.0000000
      0.0000000	      0.0000000	      0.0000000
      0.0000000	      0.0000000	      0.0000000
      0.0000000	      0.0000000	      0.0000000
      0.0000000	      0.0000000	      0.0000000
      0.0000000	      0.0000000	      0.0000000
      0.0000000	      0.0000000	      0.0000000
      0.0000000	      0.0000000	      0.0000000
      0.0000000	      0.0000000	      0.0000000
      0.0000000	      0.0000000	      0.0000000
      0.0000000	      0.0000000	      0.0000000
      0.0000000	      0.0000000	      0.0000000
      0.0000000	      0.0000000	      0.0000000
      0.0000000	      0.0000000	      0.0000000
      0.0000000	      0.0000000	      0.0000000
      0.0000000	      0.0000000	      0.0000000
      0.0000000	      0.0000000	      0.0000000
      0.0000000	      0.0000000	      0.0000000
      0.0000000	      0.0000000	      0.0000000
      0.0000000	      0.0000000	      0.0000000
     -0.0000450	     -0.0001469	      0.0000000
     -0.0001196	     -0.0000940	      0.0000000
     -0.0003041	     -0.0000003	      0.0000000
     -0.0006574	      0.0001130	      0.0000000
     -0.0011616	      0.0002118	      0.0000000
     -0.0018053	      0.0002995	      0.0000000
     -0.0025698	      0.0003690	      0.0000000
     -0.0034310	      0.0004255	      0.0000000
     -0.0043740	      0.0004680	      0.0000000
     -0.0053770	      0.0005003	      0.0000000
     -0.0064291	      0.0005230	      0.0000000
     -0.0075141	      0.0005389	      0.0000000
     -0.0086247	      0.0005486	      0.0000000
     -0.0097501	      0.0005539	      0.0000000
     -0.0108856	      0.0005557	      0.0000000
     -0.0120247	      0.0005550	      0.0000000
     -0.0131647	      0.0005523	      0.0000000
     -0.0143017	      0.0005482	      0.0000000
     -0.0154346	      0.0005431	      0.0000000
     -0.0165610	      0.0005372	      0.0000000
     -0.0176803	      0.0005308	      0.0000000
     -0.0187912	      0.0005239	      0.0000000
     -0.0198932	      0.0005165	      0.0000000
     -0.0209854	      0.0005087	      0.0000000
     -0.0220671	      0.0005003	      0.0000000
     -0.0231376	      0.0004915	      0.0000000
     -0.0241962	      0.0004820	      0.0000000
     -0.0252417	      0.0004719	      0.0000000
     -0.0262735	      0.0004611	      0.0000000
     -0.0272902	      0.0004495	      0.0000000
     -0.0282908	      0.0004371	      0.0000000
     -0.0292740	      0.0004237	      0.0000000
     -0.0302383	      0.0004094	      0.0000000
     -0.0311825	      0.0003940	      0.0000000
     -0.0321049	      0.0003776	      0.0000000
     -0.0330038	      0.0003600	      0.0000000
     -0.0338775	      0.0003412	      0.0000000
     -0.0347243	      0.0003212	      0.0000000
     -0.0355423	      0.0002998	      0.0000000
     -0.0363294	      0.0002772	      0.0000000
     -0.0370837	      0.0002531	      0.0000000
     -0.0378031	      0.0002277	      0.0000000
     -0.0384855	      0.0002008	      0.0000000
     -0.0391286	      0.0001725	      0.0000000
     -0.0397303	      0.0001427	      0.0000000
     -0.0402883	      0.0001114	      0.0000000
     -0.0408003	      0.0000787	      0.0000000
     -0.0412641	      0.0000444	      0.0000000
     -0.0416775	      0.0000087	      0.0000000
     -0.0420382	     -0.0000284	      0.0000000
     -0.0423440	     -0.0000669	      0.0000000
     -0.0425929	     -0.0001067	      0.0000000
     -0.0427828	     -0.0001477	      0.0000000
     -0.0429119	     -0.0001899	      0.0000000
     -0.0429784	     -0.0002333	      0.0000000
     -0.0429804	     -0.0002779	      0.0000000
     -0.0429161	     -0.0003235	      0.0000000
     -0.0427840	     -0.0003700	      0.0000000
     -0.0425826	     -0.0004174	      0.0000000
     -0.0423108	     -0.0004654	      0.0000000
     -0.0419676	     -0.0005140	      0.0000000
     -0.0415522	     -0.0005628	      0.0000000
     -0.0410641	     -0.0006119	      0.0000000
     -0.0405031	     -0.0006610	      0.0000000
     -0.0398692	     -0.0007098	      0.0000000
     -0.0391626	     -0.0007584	      0.0000000
     -0.0383839	     -0.0008063	      0.0000000
     -0.0375339	     -0.0008535	      0.0000000
     -0.0366139	     -0.0008998	      0.0000000
     -0.0356253	     -0.0009449	      0.0000000
     -0.0345697	     -0.0009886	      0.0000000
     -0.0334493	     -0.0010308	      0.0000000
     -0.0322664	     -0.0010713	      0.0000000
     -0.0310236	     -0.0011099	      0.0000000
     -0.0297240	     -0.0011463	      0.0000000
     -0.0283708	     -0.0011804	      0.0000000
     -0.0269676	     -0.0012119	      0.0000000
     -0.0255186	     -0.0012406	      0.0000000
     -0.0240280	     -0.0012662	      0.0000000
     -0.0225011	     -0.0012885	      0.0000000
     -0.0209428	     -0.0013071	      0.0000000
     -0.0193598	     -0.0013216	      0.0000000
     -0.0177581	     -0.0013316	      0.0000000
     -0.0161462	     -0.0013365	      0.0000000
     -0.0145314	     -0.0013358	      0.0000000
     -0.0129248	     -0.0013286	      0.0000000
     -0.0113355	     -0.0013143	      0.0000000
     -0.0097779	     -0.0012917	      0.0000000
     -0.0082630	     -0.0012602	      0.0000000
     -0.0068099	     -0.0012180	      0.0000000
     -0.0054309	     -0.0011648	      0.0000000
     -0.0041512	     -0.0010981	      0.0000000
     -0.0029835	     -0.0010182	      0.0000000
     -0.0019595	     -0.0009223	      0.0000000
     -0.0010895	     -0.0008121	      0.0000000
     -0.0004102	     -0.0006851	      0.0000000
      0.0000770	     -0.0005479	      0.0000000
      0.0003395	     -0.0004018	      0.0000000
      0.0004014	     -0.0002615	      0.0000000
      0.0002593	     -0.0001354	      0.0000000
      0.0000000	      0.0000000	      0.0000000
      0.0000000	      0.0000000	      0.0000000
     -0.0001395	     -0.0001365	      0.0000000
     -0.0004011	      0.0000677	      0.0000000
     -0.0008851	      0.0003477	      0.0000000
     -0.0016295	      0.0006689	      0.0000000
     -0.0026279	      0.0009593	      0.0000000
     -0.0038569	      0.0012222	      0.0000000
     -0.0052949	      0.0014392	      0.0000000
     -0.0069034	      0.0016195	      0.0000000
     -0.0086588	      0.0017605	      0.0000000
     -0.0105261	      0.0018706	      0.0000000
     -0.0124851	      0.0019517	      0.0000000
     -0.0145090	      0.0020103	      0.0000000
     -0.0165830	      0.0020493	      0.0000000
     -0.0186884	      0.0020735	      0.0000000
     -0.0208154	      0.0020855	      0.0000000
     -0.0229521	      0.0020886	      0.0000000
     -0.0250926	      0.0020846	      0.0000000
     -0.0272295	      0.0020755	      0.0000000
     -0.0293595	      0.0020624	      0.0000000
     -0.0314783	      0.0020465	      0.0000000
     -0.0335839	      0.0020282	      0.0000000
     -0.0356737	      0.0020080	      0.0000000
     -0.0377461	      0.0019860	      0.0000000
     -0.0397992	      0.0019625	      0.0000000
     -0.0418318	      0.0019372	      0.0000000
     -0.0438420	      0.0019102	      0.0000000
     -0.0458283	      0.0018813	      0.0000000
     -0.0477889	      0.0018503	      0.0000000
     -0.0497218	      0.0018171	      0.0000000
     -0.0516250	      0.0017814	      0.0000000
     -0.0534963	      0.0017430	      0.0000000
     -0.0553332	      0.0017018	      0.0000000
     -0.0571332	      0.0016576	      0.0000000
     -0.0588937	      0.0016101	      0.0000000
     -0.0606117	      0.0015592	      0.0000000
     -0.0622842	      0.0015048	      0.0000000
     -0.0639081	      0.0014466	      0.0000000
     -0.0654801	      0.0013846	      0.0000000
     -0.0669968	      0.0013185	      0.0000000
     -0.0684545	      0.0012483	      0.0000000
     -0.0698497	      0.0011737	      0.0000000
     -0.0711786	      0.0010948	      0.0000000
     -0.0724373	      0.0010114	      0.0000000
     -0.0736220	      0.0009234	      0.0000000
     -0.0747285	      0.0008307	      0.0000000
     -0.0757529	      0.0007335	      0.0000000
     -0.0766912	      0.0006315	      0.0000000
     -0.0775393	      0.0005250	      0.0000000
     -0.0782932	      0.0004138	      0.0000000
     -0.0789489	      0.0002981	      0.0000000
     -0.0795027	      0.0001781	      0.0000000
     -0.0799507	      0.0000540	      0.0000000
     -0.0802892	     -0.0000742	      0.0000000
     -0.0805150	     -0.0002061	      0.0000000
     -0.0806247	     -0.0003417	      0.0000000
     -0.0806151	     -0.0004809	      0.0000000
     -0.0804832	     -0.0006235	      0.0000000
     -0.0802264	     -0.0007690	      0.0000000
     -0.0798422	     -0.0009171	      0.0000000
     -0.0793285	     -0.0010673	      0.0000000
     -0.0786837	     -0.0012192	      0.0000000
     -0.0779064	     -0.0013722	      0.0000000
     -0.0769959	     -0.0015259	      0.0000000
     -0.0759517	     -0.0016797	      0.0000000
     -0.0747739	     -0.0018331	      0.0000000
     -0.0734630	     -0.0019854	      0.0000000
     -0.0720201	     -0.0021361	      0.0000000
     -0.0704467	     -0.0022846	      0.0000000
     -0.0687449	     -0.0024302	      0.0000000
     -0.0669173	     -0.0025724	      0.0000000
     -0.0649670	     -0.0027105	      0.0000000
     -0.0628976	     -0.0028440	      0.0000000
     -0.0607135	     -0.0029721	      0.0000000
     -0.0584193	     -0.0030943	      0.0000000
     -0.0560203	     -0.0032098	      0.0000000
     -0.0535227	     -0.0033180	      0.0000000
     -0.0509329	     -0.0034182	      0.0000000
     -0.0482583	     -0.0035095	      0.0000000
     -0.0455068	     -0.0035910	      0.0000000
     -0.0426878	     -0.0036618	      0.0000000
     -0.0398106	     -0.0037208	      0.0000000
     -0.0368870	     -0.0037665	      0.0000000
     -0.0339286	     -0.0037975	      0.0000000
     -0.0309504	     -0.0038119	      0.0000000
     -0.0279665	     -0.0038078	      0.0000000
     -0.0249965	     -0.0037828	      0.0000000
     -0.0220579	     -0.0037344	      0.0000000
     -0.0191758	     -0.0036593	      0.0000000
     -0.0163716	     -0.0035550	      0.0000000
     -0.0136777	     -0.0034171	      0.0000000
     -0.0111185	     -0.0032435	      0.0000000
     -0.0087352	     -0.0030290	      0.0000000
     -0.0065534	     -0.0027733	      0.0000000
     -0.0046225	     -0.0024708	      0.0000000
     -0.0029643	     -0.0021267	      0.0000000
     -0.0016321	     -0.0017376	      0.0000000
     -0.0006326	     -0.0013229	      0.0000000
     -0.0000064	     -0.0008896	      0.0000000
      0.0002767	     -0.0004900	      0.0000000
      0.0002402	     -0.0001593	      0.0000000
      0.0000000	      0.0000000	      0.0000000
      0.0000000	      0.0000000	      0.0000000
     -0.0002486	      0.0000527	      0.0000000
     -0.0007203	      0.0005175	      0.0000000
     -0.0015280	      0.0010908	      0.0000000
     -0.0026702	      0.0017194	      0.0000000
     -0.0041495	      0.0022994	      0.0000000
     -0.0059265	      0.0028273	      0.0000000
     -0.0079796	      0.0032731	      0.0000000
     -0.0102590	      0.0036473	      0.0000000
     -0.0127361	      0.0039460	      0.0000000
     -0.0153661	      0.0041818	      0.0000000
     -0.0181226	      0.0043593	      0.0000000
     -0.0209707	      0.0044896	      0.0000000
     -0.0238898	      0.0045793	      0.0000000
     -0.0268553	      0.0046370	      0.0000000
     -0.0298527	      0.0046686	      0.0000000
     -0.0328660	      0.0046803	      0.0000000
     -0.0358858	      0.0046763	      0.0000000
     -0.0389021	      0.0046605	      0.0000000
     -0.0419093	      0.0046357	      0.0000000
     -0.0449012	      0.0046039	      0.0000000
     -0.0478742	      0.0045665	      0.0000000
     -0.0508245	      0.0045247	      0.0000000
     -0.0537495	      0.0044787	      0.0000000
     -0.0566462	      0.0044290	      0.0000000
     -0.0595124	      0.0043755	      0.0000000
     -0.0623455	      0.0043181	      0.0000000
     -0.0651431	      0.0042565	      0.0000000
     -0.0679023	      0.0041904	      0.0000000
     -0.0706206	      0.0041195	      0.0000000
     -0.0732949	      0.0040435	      0.0000000
     -0.0759219	      0.0039618	      0.0000000
     -0.0784985	      0.0038742	      0.0000000
     -0.0810209	      0.0037803	      0.0000000
     -0.0834854	      0.0036796	      0.0000000
     -0.0858880	      0.0035719	      0.0000000
     -0.0882245	      0.0034567	      0.0000000
     -0.0904907	      0.0033338	      0.0000000
     -0.0926819	      0.0032029	      0.0000000
     -0.0947935	      0.0030635	      0.0000000
     -0.0968206	      0.0029156	      0.0000000
     -0.0987582	      0.0027587	      0.0000000
     -0.1006012	      0.0025928	      0.0000000
     -0.1023444	      0.0024175	      0.0000000
     -0.1039824	      0.0022329	      0.0000000
     -0.1055098	      0.0020386	      0.0000000
     -0.1069212	      0.0018348	      0.0000000
     -0.1082112	      0.0016214	      0.0000000
     -0.1093742	      0.0013984	      0.0000000
     -0.1104050	      0.0011659	      0.0000000
     -0.1112982	      0.0009242	      0.0000000
     -0.1120485	      0.0006734	      0.0000000
     -0.1126511	      0.0004140	      0.0000000
     -0.1131008	      0.0001462	      0.0000000
     -0.1133932	     -0.0001294	      0.0000000
     -0.1135237	     -0.0004126	      0.0000000
     -0.1134883	     -0.0007031	      0.0000000
     -0.1132831	     -0.0010004	      0.0000000
     -0.1129045	     -0.0013037	      0.0000000
     -0.1123493	     -0.0016122	      0.0000000
     -0.1116151	     -0.0019251	      0.0000000
     -0.1106995	     -0.0022415	      0.0000000
     -0.1096010	     -0.0025602	      0.0000000
     -0.1083186	     -0.0028802	      0.0000000
     -0.1068519	     -0.0032005	      0.0000000
     -0.1052010	     -0.0035199	      0.0000000
     -0.1033666	     -0.0038372	      0.0000000
     -0.1013505	     -0.0041512	      0.0000000
     -0.0991546	     -0.0044607	      0.0000000
     -0.0967818	     -0.0047645	      0.0000000
     -0.0942357	     -0.0050613	      0.0000000
     -0.0915206	     -0.0053498	      0.0000000
     -0.0886414	     -0.0056287	      0.0000000
     -0.0856040	     -0.0058967	      0.0000000
     -0.0824147	     -0.0061525	      0.0000000
     -0.0790810	     -0.0063947	      0.0000000
     -0.0756109	     -0.0066218	      0.0000000
     -0.0720133	     -0.0068322	      0.0000000
     -0.0682985	     -0.0070243	      0.0000000
     -0.0644772	     -0.0071961	      0.0000000
     -0.0605620	     -0.0073455	      0.0000000
     -0.0565662	     -0.0074700	      0.0000000
     -0.0525055	     -0.0075667	      0.0000000
     -0.0483962	     -0.0076325	      0.0000000
     -0.0442584	     -0.0076635	      0.0000000
     -0.0401121	     -0.0076556	      0.0000000
     -0.0359832	     -0.0076036	      0.0000000
     -0.0318963	     -0.0075024	      0.0000000
     -0.0278848	     -0.0073454	      0.0000000
     -0.0239784	     -0.0071271	      0.0000000
     -0.0202195	     -0.0068396	      0.0000000
     -0.0166420	     -0.0064777	      0.0000000
     -0.0132986	     -0.0060330	      0.0000000
     -0.0102246	     -0.0055038	      0.0000000
     -0.0074819	     -0.0048828	      0.0000000
     -0.0051000	     -0.0041786	      0.0000000
     -0.0031442	     -0.0033906	      0.0000000
     -0.0016231	     -0.0025538	      0.0000000
     -0.0005887	     -0.0016876	      0.0000000
     -0.0000003	     -0.0008925	      0.0000000
      0.0001495	     -0.0002387	      0.0000000
      0.0000000	      0.0000000	      0.0000000
      0.0000000	      0.0000000	      0.0000000
     -0.0003632	      0.0003904	      0.0000000
     -0.0010586	      0.0012238	      0.0000000
     -0.0022021	      0.0021707	      0.0000000
     -0.0037410	      0.0031682	      0.0000000
     -0.0056849	      0.0040914	      0.0000000
     -0.0079741	      0.0049317	      0.0000000
     -0.0105898	      0.0056496	      0.0000000
     -0.0134718	      0.0062565	      0.0000000
     -0.0165903	      0.0067471	      0.0000000
     -0.0198927	      0.0071379	      0.0000000
     -0.0233492	      0.0074361	      0.0000000
     -0.0269187	      0.0076577	      0.0000000
     -0.0305768	      0.0078131	      0.0000000
     -0.0342940	      0.0079154	      0.0000000
     -0.0380524	      0.0079740	      0.0000000
     -0.0418322	      0.0079986	      0.0000000
     -0.0456215	      0.0079962	      0.0000000
     -0.0494075	      0.0079733	      0.0000000
     -0.0531826	      0.0079341	      0.0000000
     -0.0569389	      0.0078824	      0.0000000
     -0.0606712	      0.0078206	      0.0000000
     -0.0643744	      0.0077504	      0.0000000
     -0.0680448	      0.0076727	      0.0000000
     -0.0716784	      0.0075881	      0.0000000
     -0.0752719	      0.0074968	      0.0000000
     -0.0788220	      0.0073986	      0.0000000
     -0.0823253	      0.0072932	      0.0000000
     -0.0857784	      0.0071801	      0.0000000
     -0.0891775	      0.0070589	      0.0000000
     -0.0925189	      0.0069289	      0.0000000
     -0.0957986	      0.0067895	      0.0000000
     -0.0990124	      0.0066402	      0.0000000
     -0.1021557	      0.0064804	      0.0000000
     -0.1052238	      0.0063095	      0.0000000
     -0.1082119	      0.0061269	      0.0000000
     -0.1111148	      0.0059321	      0.0000000
     -0.1139271	      0.0057245	      0.0000000
     -0.1166433	      0.0055036	      0.0000000
     -0.1192577	      0.0052691	      0.0000000
     -0.1217642	      0.0050203	      0.0000000
     -0.1241569	      0.0047571	      0.0000000
     -0.1264296	      0.0044789	      0.0000000
     -0.1285758	      0.0041856	      0.0000000
     -0.1305891	      0.0038768	      0.0000000
     -0.1324630	      0.0035526	      0.0000000
     -0.1341910	      0.0032126	      0.0000000
     -0.1357666	      0.0028570	      0.0000000
     -0.1371830	      0.0024858	      0.0000000
     -0.1384340	      0.0020993	      0.0000000
     -0.1395131	      0.0016977	      0.0000000
     -0.1404141	      0.0012814	      0.0000000
     -0.1411309	      0.0008509	      0.0000000
     -0.1416577	      0.0004068	      0.0000000
     -0.1419889	     -0.0000501	      0.0000000
     -0.1421192	     -0.0005192	      0.0000000
     -0.1420438	     -0.0010001	      0.0000000
     -0.1417581	     -0.0014917	      0.0000000
     -0.1412581	     -0.0019929	      0.0000000
     -0.1405402	     -0.0025025	      0.0000000
     -0.1396013	     -0.0030189	      0.0000000
     -0.1384392	     -0.0035407	      0.0000000
     -0.1370521	     -0.0040662	      0.0000000
     -0.1354387	     -0.0045938	      0.0000000
     -0.1335989	     -0.0051216	      0.0000000
     -0.1315328	     -0.0056479	      0.0000000
     -0.1292418	     -0.0061707	      0.0000000
     -0.1267277	     -0.0066881	      0.0000000
     -0.1239932	     -0.0071981	      0.0000000
     -0.1210419	     -0.0076987	      0.0000000
     -0.1178782	     -0.0081878	      0.0000000
     -0.1145074	     -0.0086634	      0.0000000
     -0.1109357	     -0.0091234	      0.0000000
     -0.1071699	     -0.0095656	      0.0000000
     -0.1032183	     -0.0099878	      0.0000000
     -0.0990895	     -0.0103877	      0.0000000
     -0.0947938	     -0.0107629	      0.0000000
     -0.0903418	     -0.0111108	      0.0000000
     -0.0857462	     -0.0114285	      0.0000000
     -0.0810201	     -0.0117129	      0.0000000
     -0.0761790	     -0.0119603	      0.0000000
     -0.0712390	     -0.0121667	      0.0000000
     -0.0662194	     -0.0123274	      0.0000000
     -0.0611402	     -0.0124369	      0.0000000
     -0.0560258	     -0.0124891	      0.0000000
     -0.0509006	     -0.0124770	      0.0000000
     -0.0457959	     -0.0123924	      0.0000000
     -0.0407418	     -0.0122270	      0.0000000
     -0.0357780	     -0.0119705	      0.0000000
     -0.0309403	     -0.0116138	      0.0000000
     -0.0262788	     -0.0111450	      0.0000000
     -0.0218340	     -0.0105560	      0.0000000
     -0.0176670	     -0.0098348	      0.0000000
     -0.0138191	     -0.0089788	      0.0000000
     -0.0103613	     -0.0079795	      0.0000000
     -0.0073267	     -0.0068498	      0.0000000
     -0.0047905	     -0.0055931	      0.0000000
     -0.0027599	     -0.0042605	      0.0000000
     -0.0013011	     -0.0028856	      0.0000000
     -0.0003648	     -0.0016082	      0.0000000
      0.0000197	     -0.0005298	      0.0000000
      0.0000000	      0.0000000	      0.0000000
      0.0000000	      0.0000000	      0.0000000
     -0.0004667	      0.0009085	      0.0000000
     -0.0013718	      0.0022262	      0.0000000
     -0.0028348	      0.0036354	      0.0000000
     -0.0047503	      0.0050695	      0.0000000
     -0.0071321	      0.0063946	      0.0000000
     -0.0098978	      0.0075973	      0.0000000
     -0.0130308	      0.0086322	      0.0000000
     -0.0164599	      0.0095107	      0.0000000
     -0.0201550	      0.0102271	      0.0000000
     -0.0240569	      0.0108015	      0.0000000
     -0.0281340	      0.0112441	      0.0000000
     -0.0323400	      0.0115760	      0.0000000
     -0.0366481	      0.0118116	      0.0000000
     -0.0410249	      0.0119691	      0.0000000
     -0.0454500	      0.0120618	      0.0000000
     -0.0499007	      0.0121034	      0.0000000
     -0.0543628	      0.0121041	      0.0000000
     -0.0588215	      0.0120730	      0.0000000
     -0.0632675	      0.0120167	      0.0000000
     -0.0676910	      0.0119406	      0.0000000
     -0.0720859	      0.0118483	      0.0000000
     -0.0764454	      0.0117426	      0.0000000
     -0.0807650	      0.0116250	      0.0000000
     -0.0850397	      0.0114964	      0.0000000
     -0.0892655	      0.0113571	      0.0000000
     -0.0934379	      0.0112071	      0.0000000
     -0.0975529	      0.0110459	      0.0000000
     -0.1016062	      0.0108731	      0.0000000
     -0.1055935	      0.0106879	      0.0000000
     -0.1095102	      0.0104895	      0.0000000
     -0.1133514	      0.0102772	      0.0000000
     -0.1171123	      0.0100500	      0.0000000
     -0.1207875	      0.0098073	      0.0000000
     -0.1243716	      0.0095481	      0.0000000
     -0.1278588	      0.0092716	      0.0000000
     -0.1312431	      0.0089771	      0.0000000
     -0.1345185	      0.0086639	      0.0000000
     -0.1376784	      0.0083311	      0.0000000
     -0.1407163	      0.0079783	      0.0000000
     -0.1436254	      0.0076047	      0.0000000
     -0.1463987	      0.0072098	      0.0000000
     -0.1490291	      0.0067932	      0.0000000
     -0.1515094	      0.0063544	      0.0000000
     -0.1538323	      0.0058931	      0.0000000
     -0.1559902	      0.0054091	      0.0000000
     -0.1579759	      0.0049024	      0.0000000
     -0.1597818	      0.0043729	      0.0000000
     -0.1614006	      0.0038207	      0.0000000
     -0.1628250	      0.0032462	      0.0000000
     -0.1640477	      0.0026497	      0.0000000
     -0.1650616	      0.0020319	      0.0000000
     -0.1658601	      0.0013936	      0.0000000
     -0.1664364	      0.0007354	      0.0000000
     -0.1667845	      0.0000586	      0.0000000
     -0.1668982	     -0.0006360	      0.0000000
     -0.1667723	     -0.0013473	      0.0000000
     -0.1664016	     -0.0020740	      0.0000000
     -0.1657820	     -0.0028142	      0.0000000
     -0.1649095	     -0.0035662	      0.0000000
     -0.1637808	     -0.0043279	      0.0000000
     -0.1623936	     -0.0050972	      0.0000000
     -0.1607459	     -0.0058716	      0.0000000
     -0.1588367	     -0.0066487	      0.0000000
     -0.1566659	     -0.0074259	      0.0000000
     -0.1542340	     -0.0082007	      0.0000000
     -0.1515424	     -0.0089701	      0.0000000
     -0.1485936	     -0.0097316	      0.0000000
     -0.1453908	     -0.0104820	      0.0000000
     -0.1419382	     -0.0112186	      0.0000000
     -0.1382411	     -0.0119384	      0.0000000
     -0.1343056	     -0.0126383	      0.0000000
     -0.1301388	     -0.0133153	      0.0000000
     -0.1257488	     -0.0139662	      0.0000000
     -0.1211451	     -0.0145877	      0.0000000
     -0.1163377	     -0.0151767	      0.0000000
     -0.1113384	     -0.0157293	      0.0000000
     -0.1061596	     -0.0162418	      0.0000000
     -0.1008159	     -0.0167100	      0.0000000
     -0.0953223	     -0.0171291	      0.0000000
     -0.0896968	     -0.0174939	      0.0000000
     -0.0839579	     -0.0177983	      0.0000000
     -0.0781277	     -0.0180354	      0.0000000
     -0.0722292	     -0.0181974	      0.0000000
     -0.0662901	     -0.0182750	      0.0000000
     -0.0603386	     -0.0182583	      0.0000000
     -0.0544099	     -0.0181354	      0.0000000
     -0.0485383	     -0.0178944	      0.0000000
     -0.0427683	     -0.0175208	      0.0000000
     -0.0371403	     -0.0170014	      0.0000000
     -0.0317100	     -0.0163201	      0.0000000
     -0.0265225	     -0.0154655	      0.0000000
     -0.0216452	     -0.0144223	      0.0000000
     -0.0171233	     -0.0131866	      0.0000000
     -0.0130351	     -0.0117497	      0.0000000
     -0.0094153	     -0.0101284	      0.0000000
     -0.0063495	     -0.0083316	      0.0000000
     -0.0038427	     -0.0064247	      0.0000000
     -0.0019802	     -0.0044565	      0.0000000
     -0.0007060	     -0.0025978	      0.0000000
     -0.0000980	     -0.0009782	      0.0000000
      0.0000000	      0.0000000	      0.0000000
      0.0000000	      0.0000000	      0.0000000
     -0.0005616	      0.0015642	      0.0000000
     -0.0016630	      0.0034700	      0.0000000
     -0.0034252	      0.0054176	      0.0000000
     -0.0056932	      0.0073421	      0.0000000
     -0.0084825	      0.0091100	      0.0000000
     -0.0116871	      0.0107065	      0.0000000
     -0.0152921	      0.0120847	      0.0000000